/*--------------------------------*- C++ -*----------------------------------*\
| =========                 |                                                 |
| \\      /  F ield         | OpenFOAM: The Open Source CFD Toolbox           |
|  \\    /   O peration     | Version:  v1606+                                |
|   \\  /    A nd           | Web:      www.OpenFOAM.com                      |
|    \\/     M anipulation  |                                                 |
\*---------------------------------------------------------------------------*/
FoamFile
{
    version     2.0;
    format      ascii;
    class       volScalarField;
    location    "0";
    object      k;
}
// * * * * * * * * * * * * * * * * * * * * * * * * * * * * * * * * * * * * * //

dimensions      [0 2 -2 0 0 0 0];

internalField   uniform 0.1450815;

boundaryField
{
    WALL
    {
        type            kqRWallFunction;
        value           uniform 0;
    }
    INLET
    {
        type            fixedValue;
        value           nonuniform List<scalar>
		70
		(
			0.649261188825
			0.33564598222
			0.222346725481
			0.170210620383
			0.139861958338
			0.119872150086
			0.105655728275
			0.0950001378292
			0.0867044813667
			0.0800483800413
			0.0745949388378
			0.0700377123369
			0.0661724288655
			0.0628501795454
			0.0599695243051
			0.0574419656965
			0.0552109877907
			0.0532261380796
			0.0514494190652
			0.0498485925207
			0.0484023092856
			0.0470868266091
			0.045888254584
			0.044790791046
			0.0437811539759
			0.042851733598
			0.0419935942228
			0.0411979191803
			0.0404592345662
			0.0397727387287
			0.0391312122914
			0.0385331457166
			0.0379724936229
			0.0374475251626
			0.0369549176202
			0.0364908385046
			0.0360551757268
			0.0356437550296
			0.0352559718045
			0.0348889471669
			0.0345423302106
			0.0342143145794
			0.0339032428849
			0.0336083031548
			0.0333280460092
			0.0330618182008
			0.0328090153581
			0.0325684112825
			0.032339518348
			0.0321212366127
			0.0319131721649
			0.0317149575593
			0.031525629183
			0.0313448903588
			0.0311718576669
			0.0310068905069
			0.0308491521721
			0.030698432361
			0.0305539538373
			0.0304155480226
			0.0302830558747
			0.0301563273778
			0.0300346628704
			0.0299179431734
			0.0298060554494
			0.0296988929008
			0.0295958140193
			0.0294967350758
			0.0294015765017
			0.0293107918108
			 );
    }
    OUTLET
    {
        type            zeroGradient;
    }
    SYMMETRY-SIDE-1
    {
        type            wedge;
    }
    SYMMETRY-SIDE-2
    {
        type            wedge;
    }
}


// ************************************************************************* //
