/*--------------------------------*- C++ -*----------------------------------*\
| =========                 |                                                 |
| \\      /  F ield         | OpenFOAM: The Open Source CFD Toolbox           |
|  \\    /   O peration     | Version:  v1606+                                |
|   \\  /    A nd           | Web:      www.OpenFOAM.com                      |
|    \\/     M anipulation  |                                                 |
\*---------------------------------------------------------------------------*/
FoamFile
{
    version     2.0;
    format      ascii;
    class       volVectorField;
    location    "0";
    object      U;
}
// * * * * * * * * * * * * * * * * * * * * * * * * * * * * * * * * * * * * * //

dimensions      [0 1 -1 0 0 0 0];

internalField   uniform (6.22 0 0);

boundaryField
{
    WALL
    {
        type            superFluidWall;
		value			uniform (0 0 0);
    }
    INLET
    {
        type            fixedValue;
        value           nonuniform List<vector>
		70
		(
				(5.15523728643 0 0)
				(5.49982715694 0 0)
				(5.72470559035 0 0)
				(5.87507834317 0 0)
				(5.98795384163 0 0)
				(6.07804805893 0 0)
				(6.15275993252 0 0)
				(6.2163633753 0 0)
				(6.27154104149 0 0)
				(6.32016558659 0 0)
				(6.36342500993 0 0)
				(6.40231897281 0 0)
				(6.43754440097 0 0)
				(6.46967061363 0 0)
				(6.49906935063 0 0)
				(6.52616750703 0 0)
				(6.55119390699 0 0)
				(6.57440854387 0 0)
				(6.59600774468 0 0)
				(6.61618016741 0 0)
				(6.6350249072 0 0)
				(6.65270891268 0 0)
				(6.66929898732 0 0)
				(6.6849112851 0 0)
				(6.6996488117 0 0)
				(6.71354834637 0 0)
				(6.72667830548 0 0)
				(6.73911786539 0 0)
				(6.75090434171 0 0)
				(6.76207140427 0 0)
				(6.77269951361 0 0)
				(6.78278099401 0 0)
				(6.79238870294 0 0)
				(6.8015268707 0 0)
				(6.81023029028 0 0)
				(6.81854674822 0 0)
				(6.82646011864 0 0)
				(6.83402993973 0 0)
				(6.84125301236 0 0)
				(6.8481700635 0 0)
				(6.85477610527 0 0)
				(6.86109486876 0 0)
				(6.86714885756 0 0)
				(6.87294536903 0 0)
				(6.87850520151 0 0)
				(6.88383436881 0 0)
				(6.88893851046 0 0)
				(6.89383654244 0 0)
				(6.89853311136 0 0)
				(6.9030460092 0 0)
				(6.90737906102 0 0)
				(6.91153587478 0 0)
				(6.91553300187 0 0)
				(6.91937340328 0 0)
				(6.92307286642 0 0)
				(6.92662090169 0 0)
				(6.93003286203 0 0)
				(6.93331091635 0 0)
				(6.93646982536 0 0)
				(6.93951134842 0 0)
				(6.94243715855 0 0)
				(6.94524884594 0 0)
				(6.9479603893 0 0)
				(6.95057306411 0 0)
				(6.95308808629 0 0)
				(6.95550661431 0 0)
				(6.95784201954 0 0)
				(6.96009521705 0 0)
				(6.96226708158 0 0)
				(6.96434631037 0 0)
			);
    }
    OUTLET
    {
        type            zeroGradient;
    }
    SYMMETRY-SIDE-1
    {
        type            wedge;
    }
    SYMMETRY-SIDE-2
    {
        type            wedge;
    }
}


// ************************************************************************* //
