/*--------------------------------*- C++ -*----------------------------------*\
| =========                 |                                                 |
| \\      /  F ield         | OpenFOAM: The Open Source CFD Toolbox           |
|  \\    /   O peration     | Version:  v1612+                                |
|   \\  /    A nd           | Web:      www.OpenFOAM.com                      |
|    \\/     M anipulation  |                                                 |
\*---------------------------------------------------------------------------*/
FoamFile
{
    version     2.0;
    format      ascii;
    class       volScalarField;
    location    "290.1";
    object      alphaEff;
}
// * * * * * * * * * * * * * * * * * * * * * * * * * * * * * * * * * * * * * //

dimensions      [0 2 -1 0 0 0 0];

internalField   nonuniform List<scalar> 
40000
(
0.9797
0.898728
0.906008
0.917256
0.915994
0.914453
0.914239
0.914156
0.914076
0.914231
0.914764
0.915754
0.917181
0.918716
0.919782
0.92018
0.920144
0.920057
0.920118
0.920049
0.919597
0.918818
0.918067
0.918734
0.921377
0.922729
0.92034
0.918169
0.918406
0.919308
0.919983
0.920167
0.920075
0.920105
0.920185
0.919912
0.918942
0.917344
0.915743
0.914609
0.91403
0.913923
0.914131
0.914382
0.914764
0.91644
0.917788
0.906565
0.898998
0.979205
0.975565
0.901746
0.912825
0.917944
0.916339
0.915143
0.914815
0.914659
0.914593
0.914739
0.915181
0.915975
0.917126
0.91841
0.919419
0.919929
0.920014
0.919996
0.920043
0.919968
0.919546
0.918935
0.918475
0.919104
0.92097
0.921896
0.920269
0.91866
0.918682
0.919302
0.919885
0.920082
0.920018
0.919998
0.919963
0.919552
0.91859
0.917235
0.91595
0.915058
0.914595
0.914496
0.914668
0.91496
0.915428
0.916717
0.918382
0.913278
0.902002
0.975159
0.954852
0.915418
0.918093
0.918136
0.91658
0.915755
0.91538
0.915191
0.915175
0.915398
0.915887
0.916626
0.917544
0.918466
0.919177
0.919668
0.919872
0.919929
0.919984
0.919904
0.919504
0.919142
0.918911
0.919432
0.920678
0.921306
0.920248
0.919091
0.919056
0.919329
0.919807
0.920015
0.919963
0.919876
0.919728
0.919268
0.918577
0.917628
0.916637
0.915834
0.915318
0.915123
0.915219
0.915519
0.916001
0.916931
0.918529
0.918443
0.915625
0.954614
0.948202
0.91881
0.919749
0.91852
0.917172
0.916385
0.91592
0.915649
0.915604
0.915827
0.916343
0.917116
0.917998
0.918743
0.919174
0.919475
0.91972
0.919852
0.91994
0.919846
0.919428
0.919331
0.919223
0.919644
0.920443
0.920889
0.920208
0.91939
0.919361
0.919336
0.919711
0.919967
0.919904
0.919746
0.919519
0.919205
0.918814
0.918092
0.917164
0.916324
0.915771
0.915565
0.915681
0.916052
0.916608
0.917484
0.918863
0.920053
0.918972
0.94805
0.942509
0.921349
0.92186
0.919647
0.917834
0.916898
0.916378
0.916051
0.915958
0.91612
0.916568
0.917303
0.918225
0.91902
0.919369
0.919445
0.919581
0.919768
0.919892
0.919785
0.919346
0.919482
0.919418
0.919765
0.920262
0.920611
0.920165
0.91957
0.919574
0.919329
0.91961
0.919921
0.919836
0.919615
0.919438
0.919362
0.919103
0.918342
0.917359
0.916554
0.916075
0.915934
0.916087
0.916504
0.917114
0.918101
0.919934
0.922123
0.921495
0.942416
0.939569
0.922415
0.922427
0.920047
0.91823
0.917353
0.916816
0.91646
0.91632
0.91642
0.916767
0.917364
0.918193
0.919056
0.919545
0.919568
0.919519
0.919658
0.919837
0.919728
0.91927
0.919588
0.919536
0.919827
0.920123
0.920424
0.920121
0.919669
0.919713
0.919314
0.919519
0.919875
0.919744
0.919515
0.91952
0.919556
0.919175
0.918307
0.917406
0.916752
0.916389
0.916313
0.916502
0.916932
0.917548
0.918479
0.920299
0.922655
0.922546
0.939514
0.936995
0.923186
0.922822
0.920649
0.918813
0.917845
0.917247
0.916853
0.916678
0.916737
0.917003
0.917465
0.918123
0.91891
0.919537
0.919714
0.919575
0.919554
0.919758
0.919686
0.919221
0.919662
0.919607
0.919856
0.920016
0.920299
0.920083
0.91972
0.919807
0.919301
0.919466
0.919822
0.919625
0.919513
0.919673
0.919603
0.919038
0.918213
0.917491
0.916995
0.916721
0.916685
0.916908
0.917361
0.918019
0.919026
0.920868
0.923024
0.923307
0.93697
0.93484
0.923754
0.922991
0.921031
0.919233
0.918232
0.917616
0.91721
0.917021
0.917047
0.917261
0.917629
0.918132
0.918765
0.919389
0.919754
0.919699
0.919525
0.919626
0.919693
0.919212
0.919712
0.91965
0.919867
0.919934
0.920216
0.920049
0.919745
0.919871
0.919294
0.919477
0.919714
0.919544
0.91961
0.919766
0.919489
0.918875
0.918195
0.917649
0.917263
0.917047
0.917039
0.91727
0.917727
0.918394
0.919425
0.921225
0.923173
0.923866
0.934839
0.932918
0.924154
0.923085
0.921332
0.919623
0.918607
0.917974
0.917555
0.917346
0.917339
0.917512
0.91782
0.918219
0.918703
0.919231
0.919672
0.9198
0.919577
0.919515
0.919714
0.919245
0.919736
0.919674
0.919865
0.91987
0.920162
0.920018
0.919756
0.919907
0.919294
0.919568
0.919538
0.919549
0.919733
0.919738
0.919331
0.918788
0.918265
0.917844
0.917525
0.917352
0.917374
0.917619
0.918081
0.918756
0.919796
0.921505
0.92325
0.924258
0.932937
0.931265
0.924383
0.923119
0.921541
0.919946
0.918935
0.918293
0.917866
0.917638
0.917607
0.917744
0.918008
0.918343
0.918717
0.919132
0.919543
0.919819
0.919675
0.919499
0.91968
0.919339
0.919734
0.919688
0.919856
0.919822
0.92013
0.919988
0.919759
0.919913
0.919303
0.919702
0.919399
0.919617
0.919809
0.919634
0.919218
0.91878
0.918382
0.918037
0.917765
0.917629
0.917676
0.917933
0.918397
0.919073
0.920102
0.921699
0.92327
0.924482
0.931299
0.929851
0.924462
0.923111
0.921686
0.920214
0.919224
0.918582
0.918152
0.91791
0.917854
0.917956
0.918179
0.918472
0.918777
0.919095
0.919436
0.919767
0.919764
0.919563
0.919569
0.919511
0.9197
0.919696
0.919842
0.919788
0.920112
0.919951
0.919758
0.919889
0.919358
0.919786
0.919393
0.91971
0.919812
0.919526
0.919164
0.918824
0.918511
0.918213
0.917984
0.917883
0.917954
0.918221
0.918683
0.919353
0.920358
0.921831
0.92325
0.924556
0.929898
0.928649
0.924427
0.923067
0.921779
0.920433
0.919476
0.918841
0.918411
0.918159
0.91808
0.91815
0.918334
0.91859
0.918854
0.919102
0.919373
0.919685
0.919807
0.919667
0.919447
0.919723
0.919633
0.919698
0.919821
0.919765
0.920104
0.919891
0.91975
0.919821
0.919515
0.919761
0.919495
0.919787
0.919764
0.919451
0.919156
0.918895
0.918633
0.918372
0.918183
0.918115
0.918208
0.918482
0.918939
0.919597
0.920565
0.921914
0.923195
0.924518
0.928705
0.927625
0.924314
0.922995
0.921832
0.920607
0.919693
0.919072
0.918646
0.918387
0.918289
0.91833
0.918477
0.918697
0.918933
0.919134
0.919346
0.919611
0.9198
0.919767
0.919419
0.919879
0.919589
0.919689
0.919794
0.91975
0.920099
0.919806
0.919731
0.919698
0.919753
0.919656
0.919638
0.919819
0.9197
0.919412
0.919176
0.918973
0.918742
0.918517
0.918366
0.918329
0.918439
0.918718
0.919167
0.919807
0.920731
0.921958
0.923115
0.924402
0.927688
0.926747
0.924151
0.922903
0.921853
0.920743
0.919878
0.919277
0.918858
0.918595
0.918481
0.918496
0.918611
0.918795
0.919005
0.91918
0.919343
0.919561
0.919761
0.919836
0.919499
0.919904
0.919627
0.919667
0.919763
0.919738
0.920093
0.919719
0.919691
0.919595
0.919933
0.919577
0.919766
0.919804
0.919646
0.919398
0.919215
0.919048
0.918841
0.918652
0.918535
0.918524
0.918649
0.91893
0.919369
0.919986
0.92086
0.921971
0.923016
0.924237
0.926815
0.925992
0.923958
0.922798
0.92185
0.920848
0.920035
0.919458
0.919049
0.918784
0.918657
0.91865
0.918736
0.918887
0.919071
0.919231
0.919356
0.919533
0.919713
0.919862
0.919628
0.919844
0.919706
0.919645
0.919731
0.919727
0.920078
0.919654
0.919662
0.919568
0.919986
0.919584
0.919855
0.919763
0.919608
0.919402
0.919264
0.919117
0.918934
0.918778
0.918692
0.918703
0.918841
0.919121
0.919547
0.920138
0.920958
0.921962
0.922905
0.924041
0.926063
0.925341
0.923748
0.922685
0.921829
0.920925
0.920167
0.919616
0.91922
0.918956
0.918819
0.918793
0.918854
0.918976
0.919133
0.91928
0.919382
0.91952
0.919672
0.919851
0.919752
0.919792
0.919758
0.919637
0.919717
0.919732
0.920056
0.919622
0.919679
0.919582
0.919972
0.919661
0.919901
0.919716
0.919585
0.919418
0.919315
0.919181
0.919022
0.918897
0.918836
0.918867
0.919014
0.919292
0.919702
0.920266
0.92103
0.921936
0.922787
0.923829
0.925415
0.92478
0.923531
0.922567
0.921795
0.92098
0.920277
0.919754
0.919373
0.919112
0.918967
0.918925
0.918965
0.919061
0.919193
0.919326
0.919415
0.919517
0.919643
0.919817
0.919846
0.919788
0.919768
0.919644
0.919732
0.919756
0.92004
0.919625
0.919717
0.919603
0.91994
0.919765
0.919908
0.91968
0.919574
0.919444
0.919364
0.919241
0.919106
0.919009
0.91897
0.919017
0.919171
0.919444
0.919838
0.920372
0.921081
0.921897
0.922665
0.92361
0.924855
0.924294
0.923314
0.922448
0.921751
0.921017
0.920368
0.919874
0.919509
0.919253
0.919103
0.919048
0.919069
0.919143
0.919251
0.91937
0.919452
0.919525
0.919627
0.919779
0.919907
0.91983
0.919749
0.919663
0.919763
0.919787
0.920019
0.91966
0.919752
0.919616
0.91992
0.919861
0.919891
0.919658
0.919572
0.919477
0.91941
0.919298
0.919187
0.919113
0.919094
0.919154
0.919312
0.919579
0.919956
0.920459
0.921114
0.921849
0.922542
0.923391
0.92437
0.923871
0.923103
0.922329
0.921701
0.921039
0.920442
0.919978
0.919629
0.91938
0.919228
0.919162
0.919166
0.919221
0.919308
0.919411
0.919488
0.919541
0.91962
0.919748
0.919937
0.919893
0.919725
0.919684
0.919789
0.919814
0.919982
0.919704
0.919776
0.919618
0.91992
0.919937
0.919864
0.919649
0.919578
0.919513
0.919453
0.919354
0.919265
0.919211
0.919208
0.919279
0.91944
0.919699
0.920058
0.92053
0.921133
0.921795
0.92242
0.923178
0.923947
0.923502
0.9229
0.922212
0.921646
0.92105
0.920501
0.920068
0.919736
0.919495
0.919341
0.919267
0.919257
0.919296
0.919364
0.919451
0.919523
0.919564
0.919621
0.919728
0.919943
0.919959
0.919711
0.9197
0.919806
0.919832
0.919938
0.919734
0.919785
0.919614
0.919941
0.919988
0.919838
0.919648
0.919593
0.919549
0.919494
0.919408
0.919339
0.919302
0.919314
0.919393
0.919554
0.919805
0.920146
0.920587
0.921141
0.921737
0.922301
0.922974
0.923578
0.92318
0.922709
0.922099
0.921588
0.921051
0.920549
0.920145
0.919831
0.919598
0.919445
0.919363
0.919343
0.919367
0.919419
0.91949
0.919556
0.919591
0.919628
0.919719
0.919933
0.920016
0.919716
0.919706
0.919803
0.919835
0.919891
0.919743
0.91978
0.919614
0.919976
0.920016
0.919819
0.919654
0.919616
0.919585
0.919533
0.919462
0.91941
0.919387
0.919411
0.919497
0.919657
0.919898
0.920221
0.920632
0.921139
0.921677
0.922185
0.922781
0.923255
0.922897
0.922529
0.92199
0.92153
0.921045
0.920586
0.92021
0.919914
0.919691
0.919539
0.919453
0.919422
0.919434
0.919473
0.919529
0.919588
0.919621
0.919641
0.919718
0.919918
0.920058
0.919742
0.919704
0.919779
0.919822
0.919845
0.91973
0.919763
0.919625
0.920016
0.920025
0.919809
0.919665
0.919643
0.919619
0.919571
0.919514
0.919477
0.919467
0.9195
0.919591
0.91975
0.919981
0.920285
0.920667
0.921131
0.921616
0.922074
0.9226
0.922971
0.922648
0.922362
0.921886
0.921471
0.921033
0.920615
0.920266
0.919988
0.919774
0.919625
0.919535
0.919497
0.919498
0.919525
0.919569
0.919619
0.919651
0.919661
0.919723
0.919901
0.920084
0.919783
0.9197
0.919748
0.919796
0.919804
0.919704
0.919738
0.919651
0.920054
0.920022
0.919805
0.919682
0.919673
0.919652
0.919609
0.919565
0.91954
0.919541
0.919582
0.919677
0.919832
0.920053
0.920339
0.920693
0.921117
0.921555
0.921968
0.922431
0.922721
0.922429
0.922208
0.921787
0.921413
0.921017
0.920636
0.920314
0.920053
0.919849
0.919703
0.919611
0.919566
0.919558
0.919575
0.919608
0.919649
0.91968
0.919685
0.919732
0.919889
0.920094
0.919835
0.919701
0.919707
0.919761
0.919771
0.919675
0.919712
0.919692
0.920085
0.920012
0.919807
0.919703
0.919705
0.919684
0.919647
0.919615
0.9196
0.91961
0.919658
0.919754
0.919906
0.920116
0.920384
0.920713
0.921099
0.921495
0.921868
0.922275
0.922501
0.922236
0.922065
0.921693
0.921357
0.920999
0.920651
0.920354
0.920109
0.919916
0.919774
0.919681
0.919631
0.919616
0.919624
0.919647
0.91968
0.919709
0.919712
0.919744
0.919881
0.920092
0.919891
0.919714
0.919665
0.919726
0.919747
0.919629
0.919692
0.919745
0.920107
0.920001
0.919813
0.919728
0.919736
0.919715
0.919685
0.919663
0.919657
0.919675
0.919728
0.919825
0.919972
0.920172
0.920423
0.920726
0.921079
0.921437
0.921772
0.922132
0.922306
0.922064
0.921934
0.921605
0.921302
0.920978
0.920662
0.920388
0.920159
0.919976
0.919838
0.919745
0.919692
0.91967
0.919671
0.919685
0.91971
0.919737
0.919742
0.91976
0.919877
0.920083
0.919947
0.91974
0.919631
0.919696
0.919733
0.919594
0.919684
0.919808
0.92012
0.91999
0.919821
0.919757
0.919767
0.919745
0.919722
0.919709
0.919711
0.919735
0.919792
0.919889
0.920031
0.92022
0.920455
0.920735
0.921056
0.921381
0.921683
0.922
0.922133
0.921912
0.921814
0.921523
0.92125
0.920956
0.920668
0.920416
0.920203
0.920029
0.919897
0.919805
0.919748
0.919721
0.919715
0.919723
0.919741
0.919765
0.919772
0.919779
0.919877
0.92007
0.919997
0.919782
0.919612
0.919677
0.919732
0.919578
0.919694
0.919874
0.920126
0.919982
0.919833
0.919788
0.919796
0.919775
0.919759
0.919753
0.919761
0.919791
0.91985
0.919947
0.920084
0.920263
0.920482
0.92074
0.921032
0.921326
0.921599
0.921879
0.921979
0.921777
0.921704
0.921446
0.9212
0.920934
0.920672
0.92044
0.920241
0.920077
0.91995
0.919859
0.9198
0.919769
0.919758
0.91976
0.919772
0.919792
0.919801
0.919802
0.91988
0.920056
0.920039
0.919835
0.91961
0.919673
0.919743
0.919566
0.919721
0.919939
0.920125
0.919976
0.919848
0.91982
0.919825
0.919805
0.919795
0.919795
0.919809
0.919843
0.919904
0.919999
0.920131
0.9203
0.920504
0.920741
0.921008
0.921275
0.92152
0.921768
0.921842
0.921657
0.921603
0.921374
0.921152
0.920911
0.920673
0.920459
0.920274
0.92012
0.919998
0.919909
0.919849
0.919815
0.919799
0.919797
0.919802
0.919818
0.91983
0.919827
0.919886
0.920043
0.920071
0.919895
0.919629
0.919681
0.919765
0.919573
0.919763
0.919999
0.920119
0.919973
0.919867
0.919851
0.919853
0.919835
0.919831
0.919836
0.919854
0.919891
0.919954
0.920047
0.920173
0.920332
0.920522
0.92074
0.920983
0.921226
0.921447
0.921667
0.92172
0.921549
0.921512
0.921307
0.921107
0.920888
0.920671
0.920475
0.920303
0.920158
0.920042
0.919955
0.919895
0.919857
0.919838
0.919832
0.919833
0.919845
0.919858
0.919855
0.919896
0.920033
0.920093
0.919957
0.919664
0.919695
0.919797
0.919597
0.919815
0.920049
0.920111
0.919974
0.919888
0.919882
0.91988
0.919865
0.919865
0.919874
0.919896
0.919936
0.919999
0.92009
0.92021
0.92036
0.920537
0.920737
0.920959
0.921179
0.921378
0.921574
0.921611
0.921453
0.921428
0.921245
0.921065
0.920866
0.920669
0.920489
0.920329
0.920193
0.920082
0.919997
0.919937
0.919898
0.919876
0.919866
0.919864
0.919871
0.919885
0.919883
0.919908
0.920025
0.920105
0.920015
0.919713
0.919725
0.919837
0.919636
0.919873
0.920088
0.920102
0.919977
0.919912
0.919912
0.919906
0.919895
0.919899
0.919911
0.919936
0.919978
0.920041
0.920129
0.920244
0.920384
0.920548
0.920733
0.920935
0.921135
0.921315
0.92149
0.921513
0.921367
0.921352
0.921187
0.921025
0.920844
0.920665
0.9205
0.920351
0.920224
0.920118
0.920036
0.919976
0.919936
0.919911
0.919899
0.919894
0.919898
0.919911
0.919911
0.919924
0.92002
0.920108
0.920066
0.919769
0.919766
0.919872
0.919686
0.919931
0.920115
0.920093
0.919983
0.919937
0.91994
0.919932
0.919924
0.919932
0.919947
0.919974
0.920016
0.920079
0.920165
0.920273
0.920405
0.920558
0.920728
0.920912
0.921094
0.921256
0.921413
0.921426
0.92129
0.921282
0.921134
0.920988
0.920824
0.92066
0.920508
0.920371
0.920251
0.920151
0.920072
0.920013
0.919972
0.919945
0.919931
0.919923
0.919924
0.919936
0.919939
0.919942
0.920018
0.920106
0.920107
0.919828
0.919809
0.919907
0.919744
0.919986
0.920132
0.920085
0.919992
0.919963
0.919967
0.919957
0.919953
0.919963
0.91998
0.920009
0.920053
0.920115
0.920197
0.9203
0.920424
0.920565
0.920722
0.920889
0.921055
0.921201
0.921342
0.921347
0.921221
0.921219
0.921085
0.920953
0.920804
0.920655
0.920515
0.920388
0.920276
0.920181
0.920105
0.920047
0.920006
0.919978
0.919961
0.919952
0.91995
0.91996
0.919966
0.919961
0.920018
0.9201
0.920137
0.919887
0.919858
0.919947
0.919804
0.920035
0.92014
0.920078
0.920003
0.919989
0.919992
0.919982
0.919982
0.919993
0.920012
0.920042
0.920086
0.920147
0.920226
0.920324
0.92044
0.920571
0.920715
0.920868
0.921019
0.921151
0.921278
0.921276
0.921159
0.921161
0.92104
0.920921
0.920785
0.920649
0.920521
0.920403
0.920298
0.920209
0.920136
0.920079
0.920037
0.920009
0.919991
0.91998
0.919976
0.919983
0.919991
0.919983
0.920021
0.920092
0.920156
0.919944
0.919911
0.919983
0.919864
0.920076
0.920141
0.920073
0.920016
0.920015
0.920016
0.920007
0.920009
0.920022
0.920043
0.920074
0.920118
0.920177
0.920253
0.920345
0.920453
0.920576
0.920708
0.920847
0.920985
0.921104
0.92122
0.921213
0.921103
0.921108
0.920998
0.920891
0.920767
0.920643
0.920526
0.920416
0.920318
0.920234
0.920164
0.920108
0.920067
0.920038
0.920019
0.920007
0.920001
0.920006
0.920015
0.920004
0.920027
0.920083
0.920166
0.919996
0.919963
0.920021
0.919921
0.920109
0.920137
0.92007
0.920031
0.920039
0.920039
0.920031
0.920036
0.92005
0.920072
0.920103
0.920147
0.920204
0.920277
0.920364
0.920466
0.920579
0.9207
0.920828
0.920954
0.921061
0.921166
0.921156
0.921052
0.92106
0.92096
0.920863
0.92075
0.920638
0.92053
0.920428
0.920336
0.920257
0.92019
0.920136
0.920096
0.920066
0.920046
0.920033
0.920026
0.920028
0.920038
0.920026
0.920034
0.920076
0.920169
0.920042
0.920012
0.920059
0.919976
0.920134
0.920131
0.920069
0.920048
0.920062
0.920061
0.920055
0.920062
0.920077
0.920099
0.920131
0.920174
0.92023
0.920299
0.920381
0.920476
0.920581
0.920693
0.92081
0.920924
0.921022
0.921118
0.921104
0.921007
0.921016
0.920925
0.920837
0.920735
0.920632
0.920532
0.920438
0.920353
0.920277
0.920214
0.920162
0.920122
0.920093
0.920072
0.920058
0.92005
0.92005
0.920059
0.920048
0.920044
0.92007
0.920167
0.920082
0.920059
0.920095
0.920026
0.920152
0.920123
0.920071
0.920065
0.920084
0.920081
0.920077
0.920087
0.920102
0.920125
0.920157
0.920199
0.920253
0.920319
0.920397
0.920486
0.920583
0.920686
0.920792
0.920897
0.920985
0.921073
0.921057
0.920966
0.920976
0.920893
0.920814
0.92072
0.920626
0.920535
0.920448
0.920368
0.920297
0.920236
0.920186
0.920147
0.920118
0.920097
0.920083
0.920073
0.920071
0.920079
0.920069
0.920055
0.920066
0.920161
0.920115
0.920102
0.920129
0.920071
0.920165
0.920116
0.920075
0.920083
0.920104
0.920101
0.9201
0.92011
0.920127
0.92015
0.920182
0.920223
0.920275
0.920338
0.920411
0.920494
0.920584
0.920679
0.920776
0.920872
0.920952
0.921033
0.921015
0.920929
0.92094
0.920863
0.920792
0.920706
0.920621
0.920537
0.920456
0.920381
0.920315
0.920257
0.920209
0.920171
0.920142
0.92012
0.920106
0.920096
0.920091
0.920098
0.920089
0.920068
0.920065
0.920153
0.920142
0.920143
0.920161
0.920112
0.920173
0.92011
0.920081
0.920101
0.920123
0.92012
0.920121
0.920133
0.92015
0.920174
0.920205
0.920245
0.920295
0.920355
0.920424
0.920501
0.920585
0.920673
0.920762
0.920849
0.920921
0.920996
0.920977
0.920896
0.920907
0.920837
0.920772
0.920694
0.920616
0.920538
0.920463
0.920394
0.920331
0.920276
0.92023
0.920193
0.920165
0.920143
0.920128
0.920118
0.920111
0.920116
0.920108
0.920082
0.920067
0.920146
0.920164
0.92018
0.920192
0.920148
0.920178
0.920107
0.92009
0.920118
0.92014
0.920138
0.920142
0.920155
0.920172
0.920196
0.920227
0.920266
0.920314
0.920371
0.920435
0.920508
0.920586
0.920666
0.920748
0.920828
0.920893
0.920962
0.920943
0.920866
0.920877
0.920812
0.920754
0.920682
0.920611
0.92054
0.92047
0.920405
0.920346
0.920294
0.92025
0.920215
0.920186
0.920165
0.92015
0.920139
0.920131
0.920133
0.920126
0.920097
0.920071
0.92014
0.920182
0.920214
0.920221
0.92018
0.920181
0.920106
0.9201
0.920135
0.920157
0.920156
0.920162
0.920176
0.920194
0.920217
0.920248
0.920286
0.920332
0.920385
0.920446
0.920513
0.920586
0.92066
0.920735
0.920809
0.920867
0.920932
0.920912
0.920839
0.92085
0.92079
0.920737
0.920672
0.920607
0.920541
0.920477
0.920416
0.92036
0.920311
0.920269
0.920235
0.920207
0.920186
0.92017
0.920159
0.92015
0.920149
0.920143
0.920113
0.920078
0.920136
0.920196
0.920245
0.920248
0.920208
0.920184
0.920107
0.920112
0.920152
0.920172
0.920173
0.920182
0.920196
0.920214
0.920238
0.920267
0.920304
0.920348
0.920399
0.920456
0.920519
0.920586
0.920655
0.920723
0.920791
0.920844
0.920904
0.920885
0.920815
0.920826
0.92077
0.920722
0.920663
0.920603
0.920542
0.920482
0.920426
0.920374
0.920327
0.920287
0.920254
0.920227
0.920206
0.92019
0.920178
0.920168
0.920165
0.920159
0.920129
0.920088
0.920134
0.920208
0.920273
0.920274
0.920233
0.920187
0.920111
0.920125
0.920168
0.920187
0.92019
0.920201
0.920215
0.920234
0.920257
0.920286
0.920321
0.920363
0.920411
0.920465
0.920524
0.920586
0.92065
0.920712
0.920775
0.920822
0.920878
0.920859
0.920793
0.920804
0.920752
0.920709
0.920654
0.920599
0.920543
0.920488
0.920435
0.920386
0.920342
0.920304
0.920272
0.920245
0.920225
0.920209
0.920197
0.920186
0.920181
0.920174
0.920145
0.920099
0.920135
0.920218
0.920298
0.920298
0.920255
0.92019
0.920118
0.92014
0.920184
0.920201
0.920206
0.920219
0.920234
0.920252
0.920275
0.920303
0.920338
0.920377
0.920423
0.920474
0.920528
0.920586
0.920645
0.920703
0.92076
0.920803
0.920855
0.920837
0.920773
0.920783
0.920736
0.920696
0.920646
0.920596
0.920545
0.920493
0.920444
0.920398
0.920356
0.92032
0.920289
0.920263
0.920243
0.920227
0.920215
0.920203
0.920196
0.920189
0.920161
0.920113
0.920139
0.920228
0.920321
0.92032
0.920275
0.920195
0.920128
0.920155
0.920199
0.920215
0.920222
0.920236
0.920251
0.92027
0.920293
0.92032
0.920353
0.920391
0.920434
0.920482
0.920533
0.920586
0.920641
0.920694
0.920746
0.920786
0.920834
0.920816
0.920756
0.920765
0.920721
0.920685
0.920639
0.920593
0.920546
0.920498
0.920452
0.920409
0.92037
0.920335
0.920305
0.920281
0.92026
0.920244
0.920232
0.92022
0.920211
0.920203
0.920178
0.920128
0.920145
0.920237
0.920341
0.92034
0.920293
0.920201
0.920139
0.920171
0.920214
0.920229
0.920238
0.920253
0.920268
0.920287
0.920309
0.920336
0.920368
0.920404
0.920444
0.920489
0.920537
0.920587
0.920637
0.920686
0.920734
0.92077
0.920815
0.920798
0.92074
0.920749
0.920708
0.920676
0.920633
0.920591
0.920547
0.920503
0.92046
0.920419
0.920382
0.920349
0.920321
0.920297
0.920277
0.920261
0.920249
0.920236
0.920226
0.920217
0.920194
0.920144
0.920154
0.920246
0.920359
0.920359
0.920309
0.920208
0.920152
0.920187
0.920228
0.920243
0.920253
0.920269
0.920285
0.920303
0.920325
0.920351
0.920381
0.920416
0.920454
0.920496
0.920541
0.920587
0.920634
0.920679
0.920723
0.920756
0.920798
0.920782
0.920726
0.920735
0.920696
0.920667
0.920628
0.920589
0.920549
0.920508
0.920467
0.920429
0.920394
0.920363
0.920336
0.920313
0.920293
0.920277
0.920265
0.920252
0.920241
0.920231
0.92021
0.920161
0.920165
0.920255
0.920375
0.920376
0.920323
0.920217
0.920167
0.920204
0.920242
0.920256
0.920268
0.920284
0.9203
0.920319
0.92034
0.920365
0.920395
0.920427
0.920464
0.920503
0.920545
0.920588
0.920631
0.920672
0.920714
0.920743
0.920783
0.920767
0.920714
0.920721
0.920686
0.920659
0.920624
0.920588
0.92055
0.920512
0.920475
0.920439
0.920406
0.920376
0.92035
0.920328
0.920309
0.920293
0.92028
0.920268
0.920255
0.920245
0.920226
0.920179
0.920177
0.920264
0.920389
0.920391
0.920337
0.920228
0.920183
0.920221
0.920256
0.920269
0.920282
0.920299
0.920316
0.920334
0.920355
0.920379
0.920407
0.920438
0.920473
0.92051
0.920548
0.920589
0.920629
0.920667
0.920705
0.920731
0.920769
0.920754
0.920703
0.92071
0.920677
0.920653
0.92062
0.920587
0.920552
0.920517
0.920482
0.920448
0.920417
0.920389
0.920364
0.920342
0.920324
0.920308
0.920295
0.920283
0.92027
0.920259
0.920242
0.920197
0.920192
0.920274
0.920401
0.920405
0.92035
0.920239
0.9202
0.920238
0.92027
0.920283
0.920297
0.920314
0.92033
0.920348
0.920369
0.920392
0.920419
0.920449
0.920481
0.920516
0.920552
0.92059
0.920627
0.920662
0.920697
0.920721
0.920756
0.920742
0.920693
0.9207
0.920669
0.920647
0.920617
0.920587
0.920554
0.920521
0.920488
0.920457
0.920428
0.920401
0.920377
0.920356
0.920338
0.920323
0.92031
0.920297
0.920284
0.920273
0.920257
0.920216
0.920207
0.920284
0.920413
0.920418
0.920362
0.920252
0.920218
0.920255
0.920283
0.920296
0.920311
0.920328
0.920344
0.920362
0.920383
0.920405
0.920431
0.920459
0.920489
0.920522
0.920556
0.920591
0.920625
0.920658
0.92069
0.920712
0.920745
0.920732
0.920685
0.920691
0.920662
0.920642
0.920614
0.920587
0.920557
0.920526
0.920495
0.920466
0.920438
0.920412
0.92039
0.92037
0.920352
0.920337
0.920324
0.920312
0.920298
0.920286
0.920273
0.920234
0.920224
0.920295
0.920423
0.92043
0.920373
0.920266
0.920236
0.920271
0.920297
0.920309
0.920325
0.920342
0.920358
0.920376
0.920396
0.920417
0.920442
0.920468
0.920497
0.920528
0.92056
0.920592
0.920624
0.920654
0.920685
0.920704
0.920735
0.920723
0.920677
0.920683
0.920656
0.920638
0.920612
0.920587
0.920559
0.92053
0.920502
0.920474
0.920448
0.920424
0.920402
0.920383
0.920366
0.920351
0.920338
0.920326
0.920312
0.9203
0.920288
0.920253
0.920241
0.920307
0.920432
0.920441
0.920384
0.92028
0.920254
0.920288
0.920311
0.920323
0.920339
0.920356
0.920372
0.920389
0.920408
0.920429
0.920452
0.920478
0.920505
0.920534
0.920564
0.920594
0.920624
0.920652
0.920679
0.920698
0.920727
0.920715
0.920671
0.920676
0.920651
0.920635
0.920611
0.920587
0.920562
0.920535
0.920508
0.920482
0.920457
0.920435
0.920414
0.920395
0.920379
0.920365
0.920352
0.92034
0.920326
0.920314
0.920303
0.920272
0.920259
0.920319
0.920441
0.92045
0.920395
0.920295
0.920273
0.920305
0.920324
0.920336
0.920352
0.920369
0.920385
0.920402
0.92042
0.92044
0.920463
0.920487
0.920513
0.92054
0.920568
0.920596
0.920624
0.920649
0.920675
0.920692
0.920719
0.920708
0.920666
0.92067
0.920647
0.920632
0.92061
0.920589
0.920565
0.92054
0.920515
0.92049
0.920467
0.920445
0.920425
0.920408
0.920392
0.920378
0.920365
0.920353
0.92034
0.920328
0.920318
0.92029
0.920276
0.920331
0.920449
0.92046
0.920405
0.92031
0.920291
0.920321
0.920338
0.92035
0.920366
0.920382
0.920397
0.920414
0.920432
0.920451
0.920473
0.920496
0.92052
0.920546
0.920572
0.920598
0.920624
0.920648
0.920672
0.920687
0.920712
0.920702
0.920661
0.920666
0.920644
0.92063
0.92061
0.92059
0.920568
0.920544
0.920521
0.920498
0.920476
0.920456
0.920437
0.92042
0.920405
0.920391
0.920379
0.920367
0.920354
0.920342
0.920333
0.920308
0.920295
0.920344
0.920456
0.920468
0.920416
0.920326
0.920309
0.920337
0.920351
0.920363
0.920379
0.920395
0.92041
0.920426
0.920443
0.920462
0.920483
0.920504
0.920527
0.920551
0.920576
0.9206
0.920624
0.920646
0.920669
0.920683
0.920707
0.920697
0.920658
0.920662
0.920642
0.920629
0.92061
0.920592
0.920571
0.920549
0.920527
0.920506
0.920485
0.920466
0.920448
0.920431
0.920417
0.920404
0.920391
0.92038
0.920368
0.920355
0.920348
0.920326
0.920313
0.920357
0.920464
0.920477
0.920426
0.920342
0.920327
0.920353
0.920365
0.920377
0.920392
0.920407
0.920422
0.920438
0.920455
0.920473
0.920492
0.920513
0.920535
0.920557
0.92058
0.920603
0.920625
0.920646
0.920667
0.920679
0.920702
0.920693
0.920655
0.920658
0.92064
0.920628
0.920611
0.920594
0.920574
0.920554
0.920534
0.920513
0.920494
0.920476
0.920459
0.920443
0.920429
0.920416
0.920404
0.920393
0.920381
0.920369
0.920362
0.920343
0.92033
0.92037
0.920471
0.920485
0.920436
0.920357
0.920345
0.920368
0.920378
0.92039
0.920405
0.92042
0.920434
0.92045
0.920466
0.920483
0.920501
0.920521
0.920542
0.920563
0.920584
0.920606
0.920627
0.920646
0.920665
0.920677
0.920698
0.92069
0.920653
0.920656
0.920639
0.920628
0.920612
0.920596
0.920578
0.920559
0.92054
0.920521
0.920503
0.920485
0.920469
0.920454
0.920441
0.920428
0.920417
0.920406
0.920395
0.920383
0.920377
0.92036
0.920348
0.920384
0.920478
0.920493
0.920445
0.920373
0.920363
0.920383
0.920392
0.920403
0.920418
0.920432
0.920446
0.920461
0.920476
0.920493
0.920511
0.920529
0.920549
0.920569
0.920589
0.920609
0.920628
0.920646
0.920664
0.920675
0.920694
0.920687
0.920651
0.920654
0.920638
0.920628
0.920614
0.920599
0.920582
0.920564
0.920546
0.920528
0.920511
0.920495
0.920479
0.920465
0.920452
0.92044
0.920429
0.920419
0.920408
0.920396
0.920391
0.920377
0.920365
0.920397
0.920485
0.920501
0.920455
0.920389
0.920379
0.920398
0.920405
0.920416
0.92043
0.920444
0.920458
0.920472
0.920487
0.920503
0.92052
0.920537
0.920556
0.920575
0.920593
0.920612
0.92063
0.920647
0.920664
0.920673
0.920692
0.920685
0.920651
0.920653
0.920638
0.920629
0.920616
0.920602
0.920586
0.92057
0.920553
0.920536
0.92052
0.920504
0.92049
0.920476
0.920463
0.920452
0.920441
0.920431
0.920421
0.92041
0.920405
0.920393
0.920382
0.920411
0.920492
0.920509
0.920465
0.920404
0.920396
0.920413
0.920419
0.920429
0.920443
0.920456
0.920469
0.920483
0.920497
0.920512
0.920528
0.920545
0.920563
0.920581
0.920598
0.920616
0.920633
0.920648
0.920664
0.920673
0.92069
0.920684
0.92065
0.920653
0.920639
0.920631
0.920618
0.920605
0.920591
0.920575
0.920559
0.920544
0.920528
0.920513
0.9205
0.920487
0.920475
0.920463
0.920453
0.920443
0.920434
0.920423
0.920419
0.920409
0.920399
0.920424
0.920499
0.920517
0.920474
0.92042
0.920412
0.920427
0.920432
0.920442
0.920455
0.920468
0.92048
0.920494
0.920507
0.920522
0.920537
0.920553
0.92057
0.920586
0.920603
0.920619
0.920635
0.92065
0.920664
0.920672
0.920689
0.920683
0.920651
0.920653
0.92064
0.920632
0.920621
0.920609
0.920595
0.920581
0.920566
0.920551
0.920537
0.920523
0.920509
0.920497
0.920486
0.920475
0.920465
0.920456
0.920447
0.920437
0.920433
0.920424
0.920415
0.920438
0.920507
0.920525
0.920483
0.920435
0.920428
0.920442
0.920445
0.920455
0.920467
0.920479
0.920491
0.920504
0.920517
0.920531
0.920546
0.920561
0.920577
0.920592
0.920608
0.920623
0.920638
0.920651
0.920665
0.920673
0.920688
0.920683
0.920652
0.920654
0.920642
0.920635
0.920624
0.920613
0.9206
0.920586
0.920572
0.920559
0.920545
0.920532
0.920519
0.920507
0.920496
0.920486
0.920477
0.920468
0.92046
0.92045
0.920446
0.920439
0.920431
0.920451
0.920514
0.920533
0.920492
0.92045
0.920443
0.920456
0.920458
0.920468
0.920479
0.920491
0.920502
0.920515
0.920527
0.92054
0.920554
0.920569
0.920584
0.920599
0.920613
0.920627
0.920641
0.920654
0.920667
0.920674
0.920688
0.920683
0.920653
0.920655
0.920644
0.920637
0.920627
0.920617
0.920605
0.920592
0.920579
0.920566
0.920553
0.920541
0.920529
0.920518
0.920507
0.920497
0.920488
0.92048
0.920472
0.920463
0.92046
0.920454