/*--------------------------------*- C++ -*----------------------------------*\
| =========                 |                                                 |
| \\      /  F ield         | OpenFOAM: The Open Source CFD Toolbox           |
|  \\    /   O peration     | Version:  v1612+                                |
|   \\  /    A nd           | Web:      www.OpenFOAM.com                      |
|    \\/     M anipulation  |                                                 |
\*---------------------------------------------------------------------------*/
FoamFile
{
    version     2.0;
    format      ascii;
    class       volScalarField;
    location    "290.1";
    object      p;
}
// * * * * * * * * * * * * * * * * * * * * * * * * * * * * * * * * * * * * * //

dimensions      [0 2 -2 0 0 0 0];

internalField   nonuniform List<scalar> 
40000
(
-0.00891308
-0.00906713
-0.00906344
-0.00906938
-0.00908506
-0.00909663
-0.00910446
-0.00911032
-0.00911433
-0.00911625
-0.00911607
-0.00911395
-0.00911031
-0.0091061
-0.00910272
-0.00910073
-0.00909973
-0.00909942
-0.0090989
-0.00909891
-0.00909963
-0.00910088
-0.00910232
-0.00910053
-0.00909539
-0.00909074
-0.00909778
-0.00910143
-0.0091012
-0.00909943
-0.00909834
-0.00909807
-0.0090986
-0.00909884
-0.00909961
-0.00910129
-0.00910439
-0.00910866
-0.00911257
-0.00911487
-0.00911504
-0.00911286
-0.00910838
-0.00910193
-0.00909353
-0.00908154
-0.00906568
-0.00905981
-0.00906425
-0.00891172
-0.00932479
-0.00943965
-0.00944741
-0.0094566
-0.00947212
-0.00948359
-0.00949148
-0.00949737
-0.00950139
-0.0095033
-0.0095031
-0.00950096
-0.00949732
-0.00949315
-0.00948984
-0.00948786
-0.00948685
-0.00948654
-0.00948603
-0.00948603
-0.00948672
-0.00948792
-0.0094894
-0.00948775
-0.00948275
-0.00947816
-0.0094851
-0.0094886
-0.00948823
-0.0094865
-0.00948545
-0.0094852
-0.00948572
-0.00948596
-0.00948675
-0.00948842
-0.00949145
-0.00949566
-0.00949957
-0.00950191
-0.0095021
-0.00949993
-0.00949545
-0.00948896
-0.0094805
-0.00946859
-0.00945288
-0.00944381
-0.0094368
-0.00932328
-0.00973204
-0.0098217
-0.00983592
-0.00984627
-0.00986076
-0.00987206
-0.00988003
-0.00988601
-0.00989012
-0.00989213
-0.00989199
-0.00988985
-0.00988613
-0.00988184
-0.00987843
-0.00987644
-0.00987542
-0.00987513
-0.00987462
-0.00987461
-0.00987526
-0.00987648
-0.00987814
-0.00987667
-0.00987179
-0.00986726
-0.00987413
-0.00987746
-0.00987689
-0.00987502
-0.00987401
-0.0098738
-0.00987432
-0.00987454
-0.00987532
-0.009877
-0.00988012
-0.00988448
-0.00988848
-0.00989085
-0.00989099
-0.00988872
-0.00988413
-0.00987754
-0.00986897
-0.0098572
-0.00984252
-0.0098323
-0.00981887
-0.00973034
-0.01014
-0.0102077
-0.0102248
-0.0102364
-0.0102507
-0.010262
-0.0102701
-0.0102762
-0.0102804
-0.0102826
-0.0102827
-0.0102807
-0.010277
-0.0102725
-0.0102687
-0.0102665
-0.0102655
-0.0102652
-0.0102647
-0.0102646
-0.0102652
-0.0102666
-0.0102686
-0.0102673
-0.0102625
-0.010258
-0.0102649
-0.010268
-0.0102672
-0.010265
-0.010264
-0.0102639
-0.0102644
-0.0102646
-0.0102654
-0.0102672
-0.0102708
-0.0102754
-0.0102795
-0.0102817
-0.0102816
-0.0102791
-0.0102744
-0.0102677
-0.0102589
-0.0102471
-0.0102327
-0.0102211
-0.0102048
-0.0101382
-0.0105453
-0.0105983
-0.0106164
-0.0106288
-0.0106425
-0.0106536
-0.0106618
-0.0106679
-0.0106723
-0.0106746
-0.010675
-0.0106733
-0.0106699
-0.0106653
-0.0106611
-0.0106583
-0.010657
-0.0106567
-0.0106562
-0.010656
-0.0106565
-0.0106583
-0.0106606
-0.0106596
-0.0106548
-0.0106504
-0.0106573
-0.0106603
-0.0106592
-0.0106564
-0.0106553
-0.0106554
-0.0106559
-0.0106561
-0.0106571
-0.0106594
-0.0106636
-0.0106684
-0.0106722
-0.0106741
-0.0106737
-0.010671
-0.0106661
-0.0106593
-0.0106505
-0.0106389
-0.010625
-0.0106128
-0.0105953
-0.0105432
-0.0109498
-0.0109918
-0.0110099
-0.0110224
-0.0110356
-0.0110467
-0.0110549
-0.0110611
-0.0110656
-0.0110681
-0.0110687
-0.0110674
-0.0110644
-0.0110601
-0.0110555
-0.011052
-0.0110501
-0.0110497
-0.0110492
-0.0110488
-0.0110492
-0.0110515
-0.0110543
-0.0110535
-0.0110487
-0.0110445
-0.0110514
-0.0110542
-0.0110528
-0.0110493
-0.0110479
-0.0110483
-0.011049
-0.0110492
-0.0110506
-0.0110538
-0.0110584
-0.0110631
-0.0110665
-0.0110679
-0.0110672
-0.0110644
-0.0110594
-0.0110525
-0.0110436
-0.011032
-0.0110185
-0.0110062
-0.0109888
-0.0109476
-0.0113541
-0.0113877
-0.0114053
-0.0114176
-0.0114305
-0.0114414
-0.0114496
-0.0114559
-0.0114603
-0.011463
-0.0114638
-0.0114629
-0.0114604
-0.0114565
-0.0114519
-0.0114477
-0.0114451
-0.0114443
-0.0114437
-0.0114431
-0.0114432
-0.0114463
-0.0114495
-0.011449
-0.0114442
-0.0114402
-0.0114471
-0.0114498
-0.011448
-0.0114435
-0.011442
-0.0114427
-0.0114435
-0.0114439
-0.0114462
-0.0114501
-0.0114549
-0.0114592
-0.0114621
-0.0114631
-0.0114622
-0.0114592
-0.0114542
-0.0114472
-0.0114383
-0.0114268
-0.0114137
-0.0114015
-0.0113846
-0.0113517
-0.0117586
-0.0117856
-0.0118023
-0.0118144
-0.0118269
-0.0118376
-0.0118459
-0.0118521
-0.0118567
-0.0118594
-0.0118604
-0.0118597
-0.0118576
-0.0118542
-0.0118499
-0.0118455
-0.0118419
-0.0118404
-0.0118396
-0.0118387
-0.0118387
-0.0118425
-0.0118462
-0.0118459
-0.0118413
-0.0118374
-0.0118444
-0.0118468
-0.0118446
-0.0118392
-0.0118374
-0.0118386
-0.0118395
-0.0118406
-0.0118437
-0.0118482
-0.0118529
-0.0118567
-0.0118591
-0.0118599
-0.0118587
-0.0118556
-0.0118505
-0.0118435
-0.0118345
-0.0118232
-0.0118105
-0.0117985
-0.0117824
-0.011756
-0.0121636
-0.0121852
-0.012201
-0.0122129
-0.0122249
-0.0122355
-0.0122437
-0.01225
-0.0122545
-0.0122573
-0.0122585
-0.012258
-0.0122562
-0.0122532
-0.0122493
-0.0122449
-0.0122408
-0.0122383
-0.012237
-0.012236
-0.0122356
-0.0122403
-0.0122443
-0.0122443
-0.0122397
-0.0122362
-0.0122432
-0.0122453
-0.0122428
-0.0122365
-0.0122345
-0.0122359
-0.0122372
-0.0122391
-0.0122432
-0.0122478
-0.0122521
-0.0122554
-0.0122575
-0.0122581
-0.0122568
-0.0122536
-0.0122484
-0.0122414
-0.0122324
-0.0122212
-0.0122089
-0.0121971
-0.0121819
-0.0121608
-0.0125692
-0.0125866
-0.0126013
-0.0126129
-0.0126245
-0.0126349
-0.0126431
-0.0126493
-0.0126539
-0.0126568
-0.012658
-0.0126577
-0.0126562
-0.0126535
-0.0126501
-0.0126459
-0.0126414
-0.0126381
-0.012636
-0.0126349
-0.0126342
-0.0126395
-0.0126438
-0.0126441
-0.0126397
-0.0126364
-0.0126434
-0.0126453
-0.0126424
-0.0126352
-0.0126332
-0.0126347
-0.0126367
-0.0126396
-0.0126442
-0.0126487
-0.0126526
-0.0126556
-0.0126574
-0.0126578
-0.0126564
-0.0126531
-0.0126479
-0.0126408
-0.0126319
-0.0126209
-0.0126089
-0.0125974
-0.0125832
-0.0125663
-0.0129756
-0.0129896
-0.0130033
-0.0130145
-0.0130258
-0.0130359
-0.0130441
-0.0130503
-0.0130548
-0.0130578
-0.0130591
-0.013059
-0.0130576
-0.0130553
-0.0130521
-0.0130483
-0.0130438
-0.0130397
-0.0130368
-0.0130353
-0.0130344
-0.0130402
-0.0130448
-0.0130453
-0.013041
-0.013038
-0.013045
-0.0130466
-0.0130435
-0.0130355
-0.0130337
-0.0130352
-0.0130381
-0.0130419
-0.0130467
-0.013051
-0.0130546
-0.0130573
-0.0130589
-0.013059
-0.0130575
-0.0130541
-0.0130489
-0.0130419
-0.013033
-0.0130221
-0.0130105
-0.0129994
-0.0129861
-0.0129726
-0.013383
-0.0133942
-0.0134069
-0.0134178
-0.0134287
-0.0134386
-0.0134466
-0.0134528
-0.0134573
-0.0134603
-0.0134618
-0.0134618
-0.0134606
-0.0134584
-0.0134556
-0.013452
-0.0134477
-0.0134431
-0.0134394
-0.0134374
-0.0134365
-0.0134423
-0.0134471
-0.0134479
-0.0134437
-0.0134411
-0.0134479
-0.0134493
-0.013446
-0.0134375
-0.013436
-0.0134374
-0.0134413
-0.0134458
-0.0134507
-0.0134547
-0.0134579
-0.0134604
-0.0134618
-0.0134618
-0.0134602
-0.0134567
-0.0134515
-0.0134445
-0.0134357
-0.013425
-0.0134137
-0.0134029
-0.0133906
-0.0133798
-0.0137913
-0.0138004
-0.0138122
-0.0138226
-0.0138332
-0.0138428
-0.0138507
-0.0138568
-0.0138614
-0.0138644
-0.0138659
-0.0138661
-0.013865
-0.0138631
-0.0138604
-0.0138571
-0.013853
-0.0138483
-0.0138438
-0.0138411
-0.0138404
-0.0138459
-0.0138509
-0.0138518
-0.0138477
-0.0138454
-0.0138521
-0.0138532
-0.0138499
-0.0138412
-0.0138399
-0.0138417
-0.0138463
-0.0138512
-0.013856
-0.0138598
-0.0138628
-0.0138651
-0.0138663
-0.0138662
-0.0138644
-0.0138609
-0.0138557
-0.0138487
-0.01384
-0.0138296
-0.0138186
-0.0138081
-0.0137967
-0.013788
-0.0142007
-0.0142081
-0.014219
-0.0142291
-0.0142393
-0.0142486
-0.0142564
-0.0142624
-0.014267
-0.01427
-0.0142716
-0.0142719
-0.014271
-0.0142692
-0.0142667
-0.0142636
-0.0142598
-0.0142551
-0.0142501
-0.0142466
-0.014246
-0.0142511
-0.014256
-0.014257
-0.0142531
-0.0142511
-0.0142575
-0.0142585
-0.0142551
-0.0142468
-0.0142456
-0.0142478
-0.0142531
-0.0142582
-0.0142627
-0.0142663
-0.0142691
-0.0142713
-0.0142723
-0.014272
-0.0142702
-0.0142667
-0.0142614
-0.0142545
-0.0142459
-0.0142357
-0.014225
-0.0142149
-0.0142044
-0.0141974
-0.0146113
-0.0146174
-0.0146274
-0.0146371
-0.014647
-0.0146561
-0.0146636
-0.0146696
-0.0146741
-0.0146771
-0.0146788
-0.0146792
-0.0146785
-0.0146768
-0.0146745
-0.0146716
-0.0146679
-0.0146634
-0.0146582
-0.014654
-0.0146532
-0.0146578
-0.0146625
-0.0146636
-0.0146598
-0.014658
-0.0146641
-0.014665
-0.0146617
-0.0146541
-0.0146529
-0.0146558
-0.0146614
-0.0146666
-0.0146709
-0.0146742
-0.014677
-0.014679
-0.0146799
-0.0146795
-0.0146775
-0.014674
-0.0146688
-0.0146619
-0.0146534
-0.0146435
-0.0146331
-0.0146234
-0.0146136
-0.0146079
-0.0150232
-0.0150281
-0.0150375
-0.0150468
-0.0150563
-0.0150651
-0.0150725
-0.0150784
-0.0150828
-0.0150858
-0.0150876
-0.0150881
-0.0150875
-0.015086
-0.0150837
-0.015081
-0.0150776
-0.0150732
-0.015068
-0.0150632
-0.0150621
-0.0150662
-0.0150705
-0.0150715
-0.0150678
-0.0150663
-0.015072
-0.0150728
-0.0150698
-0.015063
-0.015062
-0.0150656
-0.0150714
-0.0150764
-0.0150805
-0.0150837
-0.0150863
-0.0150882
-0.0150889
-0.0150884
-0.0150864
-0.0150828
-0.0150777
-0.0150709
-0.0150625
-0.0150529
-0.0150428
-0.0150334
-0.0150244
-0.0150197
-0.0154363
-0.0154405
-0.0154491
-0.015458
-0.0154671
-0.0154757
-0.0154829
-0.0154887
-0.015493
-0.0154961
-0.0154979
-0.0154984
-0.015498
-0.0154966
-0.0154945
-0.0154918
-0.0154886
-0.0154844
-0.0154793
-0.0154743
-0.0154725
-0.0154761
-0.0154799
-0.0154808
-0.0154772
-0.0154758
-0.0154811
-0.015482
-0.0154794
-0.0154734
-0.0154729
-0.015477
-0.0154828
-0.0154877
-0.0154916
-0.0154947
-0.0154972
-0.0154989
-0.0154996
-0.0154989
-0.0154969
-0.0154933
-0.0154882
-0.0154815
-0.0154733
-0.0154639
-0.0154541
-0.0154451
-0.0154367
-0.0154329
-0.0158508
-0.0158543
-0.0158623
-0.0158708
-0.0158796
-0.0158879
-0.0158949
-0.0159005
-0.0159049
-0.0159079
-0.0159097
-0.0159103
-0.01591
-0.0159087
-0.0159068
-0.0159042
-0.0159011
-0.0158972
-0.0158922
-0.015887
-0.0158846
-0.0158876
-0.0158908
-0.0158915
-0.0158879
-0.0158867
-0.0158917
-0.0158927
-0.0158905
-0.0158854
-0.0158854
-0.0158901
-0.0158958
-0.0159004
-0.0159042
-0.0159072
-0.0159096
-0.0159112
-0.0159117
-0.015911
-0.0159089
-0.0159053
-0.0159002
-0.0158936
-0.0158856
-0.0158765
-0.015867
-0.0158583
-0.0158505
-0.0158473
-0.0162667
-0.0162696
-0.0162771
-0.0162852
-0.0162937
-0.0163017
-0.0163085
-0.016314
-0.0163182
-0.0163212
-0.0163231
-0.0163238
-0.0163235
-0.0163224
-0.0163205
-0.0163181
-0.0163151
-0.0163114
-0.0163066
-0.0163013
-0.0162983
-0.0163006
-0.0163031
-0.0163036
-0.0163
-0.0162988
-0.0163036
-0.0163049
-0.0163031
-0.0162989
-0.0162997
-0.0163046
-0.0163102
-0.0163147
-0.0163183
-0.0163212
-0.0163236
-0.016325
-0.0163254
-0.0163246
-0.0163225
-0.0163189
-0.0163139
-0.0163074
-0.0162996
-0.0162907
-0.0162815
-0.0162732
-0.0162659
-0.0162632
-0.016684
-0.0166865
-0.0166934
-0.0167012
-0.0167093
-0.016717
-0.0167236
-0.016729
-0.0167332
-0.0167361
-0.016738
-0.0167388
-0.0167386
-0.0167376
-0.0167358
-0.0167335
-0.0167306
-0.016727
-0.0167225
-0.0167172
-0.0167136
-0.016715
-0.016717
-0.0167172
-0.0167134
-0.0167122
-0.0167169
-0.0167185
-0.0167172
-0.016714
-0.0167156
-0.0167207
-0.0167261
-0.0167304
-0.0167339
-0.0167368
-0.016739
-0.0167403
-0.0167406
-0.0167398
-0.0167376
-0.016734
-0.0167291
-0.0167228
-0.0167151
-0.0167065
-0.0166976
-0.0166896
-0.0166828
-0.0166805
-0.0171026
-0.0171048
-0.0171113
-0.0171187
-0.0171266
-0.0171339
-0.0171403
-0.0171456
-0.0171497
-0.0171526
-0.0171545
-0.0171553
-0.0171552
-0.0171543
-0.0171527
-0.0171504
-0.0171476
-0.0171441
-0.0171398
-0.0171347
-0.0171306
-0.017131
-0.0171323
-0.0171321
-0.0171282
-0.017127
-0.0171316
-0.0171335
-0.0171327
-0.0171306
-0.017133
-0.0171383
-0.0171435
-0.0171476
-0.0171511
-0.0171539
-0.017156
-0.0171572
-0.0171574
-0.0171565
-0.0171543
-0.0171508
-0.0171459
-0.0171397
-0.0171322
-0.0171239
-0.0171153
-0.0171076
-0.0171012
-0.0170993
-0.0175228
-0.0175247
-0.0175308
-0.0175378
-0.0175454
-0.0175525
-0.0175586
-0.0175637
-0.0175677
-0.0175706
-0.0175725
-0.0175734
-0.0175734
-0.0175725
-0.017571
-0.0175688
-0.0175661
-0.0175627
-0.0175586
-0.0175536
-0.0175491
-0.0175485
-0.017549
-0.0175485
-0.0175443
-0.0175429
-0.0175477
-0.0175499
-0.0175498
-0.0175488
-0.017552
-0.0175573
-0.0175623
-0.0175664
-0.0175698
-0.0175725
-0.0175745
-0.0175756
-0.0175758
-0.0175748
-0.0175726
-0.0175691
-0.0175643
-0.0175582
-0.017551
-0.0175429
-0.0175346
-0.0175272
-0.0175212
-0.0175195
-0.0179444
-0.0179461
-0.0179518
-0.0179585
-0.0179657
-0.0179725
-0.0179785
-0.0179835
-0.0179874
-0.0179902
-0.0179921
-0.017993
-0.0179931
-0.0179923
-0.0179909
-0.0179888
-0.0179861
-0.0179829
-0.0179789
-0.017974
-0.0179693
-0.0179676
-0.0179672
-0.0179661
-0.0179616
-0.0179602
-0.017965
-0.0179677
-0.0179683
-0.0179686
-0.0179725
-0.0179778
-0.0179827
-0.0179866
-0.01799
-0.0179927
-0.0179946
-0.0179956
-0.0179957
-0.0179946
-0.0179924
-0.017989
-0.0179843
-0.0179783
-0.0179713
-0.0179635
-0.0179555
-0.0179484
-0.0179427
-0.0179412
-0.0183675
-0.018369
-0.0183744
-0.0183808
-0.0183877
-0.0183942
-0.0184
-0.0184048
-0.0184086
-0.0184114
-0.0184133
-0.0184142
-0.0184143
-0.0184137
-0.0184123
-0.0184103
-0.0184077
-0.0184045
-0.0184007
-0.0183959
-0.0183909
-0.0183883
-0.0183869
-0.0183852
-0.0183803
-0.0183787
-0.0183837
-0.018387
-0.0183884
-0.01839
-0.0183945
-0.0183999
-0.0184046
-0.0184085
-0.0184118
-0.0184143
-0.0184162
-0.0184171
-0.0184171
-0.0184161
-0.0184138
-0.0184104
-0.0184058
-0.0184
-0.0183932
-0.0183856
-0.0183779
-0.0183711
-0.0183657
-0.0183644
-0.018792
-0.0187934
-0.0187985
-0.0188046
-0.0188112
-0.0188175
-0.018823
-0.0188277
-0.0188314
-0.0188342
-0.018836
-0.018837
-0.0188372
-0.0188366
-0.0188353
-0.0188333
-0.0188308
-0.0188277
-0.018824
-0.0188193
-0.0188141
-0.0188105
-0.0188081
-0.0188056
-0.0188003
-0.0187985
-0.0188037
-0.0188076
-0.0188101
-0.0188129
-0.018818
-0.0188234
-0.018828
-0.0188318
-0.0188351
-0.0188376
-0.0188393
-0.0188402
-0.0188401
-0.018839
-0.0188368
-0.0188335
-0.018829
-0.0188233
-0.0188167
-0.0188094
-0.018802
-0.0187955
-0.0187903
-0.0187891
-0.0192181
-0.0192194
-0.0192242
-0.01923
-0.0192363
-0.0192423
-0.0192476
-0.0192521
-0.0192558
-0.0192585
-0.0192604
-0.0192614
-0.0192616
-0.019261
-0.0192598
-0.0192579
-0.0192555
-0.0192524
-0.0192488
-0.0192442
-0.0192389
-0.0192344
-0.0192308
-0.0192274
-0.0192216
-0.0192197
-0.0192251
-0.0192298
-0.0192334
-0.0192374
-0.019243
-0.0192484
-0.0192529
-0.0192568
-0.0192599
-0.0192624
-0.019264
-0.0192648
-0.0192647
-0.0192636
-0.0192614
-0.0192581
-0.0192537
-0.0192482
-0.0192418
-0.0192348
-0.0192276
-0.0192213
-0.0192164
-0.0192153
-0.0196457
-0.0196469
-0.0196514
-0.019657
-0.019663
-0.0196687
-0.0196739
-0.0196782
-0.0196818
-0.0196844
-0.0196863
-0.0196873
-0.0196875
-0.019687
-0.0196859
-0.0196841
-0.0196817
-0.0196787
-0.0196751
-0.0196706
-0.0196652
-0.0196599
-0.0196551
-0.0196507
-0.0196444
-0.0196424
-0.019648
-0.0196535
-0.0196584
-0.0196635
-0.0196695
-0.0196749
-0.0196794
-0.0196832
-0.0196864
-0.0196887
-0.0196903
-0.0196911
-0.0196909
-0.0196898
-0.0196876
-0.0196844
-0.0196801
-0.0196747
-0.0196685
-0.0196617
-0.0196548
-0.0196488
-0.0196441
-0.0196431
-0.0200748
-0.0200759
-0.0200803
-0.0200855
-0.0200912
-0.0200967
-0.0201017
-0.0201059
-0.0201093
-0.020112
-0.0201138
-0.0201148
-0.0201151
-0.0201146
-0.0201135
-0.0201118
-0.0201095
-0.0201065
-0.020103
-0.0200986
-0.020093
-0.0200871
-0.0200811
-0.0200755
-0.0200687
-0.0200667
-0.0200725
-0.0200789
-0.020085
-0.0200912
-0.0200975
-0.020103
-0.0201075
-0.0201113
-0.0201144
-0.0201167
-0.0201182
-0.0201189
-0.0201187
-0.0201175
-0.0201154
-0.0201122
-0.020108
-0.0201028
-0.0200968
-0.0200902
-0.0200836
-0.0200779
-0.0200734
-0.0200724
-0.0205055
-0.0205065
-0.0205106
-0.0205156
-0.0205211
-0.0205263
-0.0205311
-0.0205352
-0.0205385
-0.0205411
-0.0205429
-0.0205439
-0.0205442
-0.0205438
-0.0205428
-0.0205411
-0.0205388
-0.0205359
-0.0205324
-0.020528
-0.0205224
-0.0205159
-0.0205089
-0.0205021
-0.0204947
-0.0204926
-0.0204987
-0.020506
-0.0205133
-0.0205205
-0.0205271
-0.0205326
-0.0205371
-0.0205409
-0.0205439
-0.0205462
-0.0205476
-0.0205483
-0.020548
-0.0205469
-0.0205447
-0.0205416
-0.0205375
-0.0205325
-0.0205267
-0.0205204
-0.020514
-0.0205085
-0.0205042
-0.0205032
-0.0209376
-0.0209387
-0.0209426
-0.0209473
-0.0209525
-0.0209575
-0.0209621
-0.020966
-0.0209693
-0.0209718
-0.0209736
-0.0209746
-0.020975
-0.0209746
-0.0209736
-0.020972
-0.0209698
-0.0209669
-0.0209634
-0.0209591
-0.0209534
-0.0209465
-0.0209384
-0.0209304
-0.0209225
-0.0209203
-0.0209266
-0.0209349
-0.0209434
-0.0209514
-0.0209583
-0.0209638
-0.0209683
-0.0209721
-0.020975
-0.0209772
-0.0209786
-0.0209792
-0.020979
-0.0209778
-0.0209757
-0.0209727
-0.0209687
-0.0209638
-0.0209582
-0.0209521
-0.020946
-0.0209407
-0.0209365
-0.0209357
-0.0213714
-0.0213724
-0.0213761
-0.0213806
-0.0213856
-0.0213904
-0.0213947
-0.0213985
-0.0214017
-0.0214042
-0.0214059
-0.021407
-0.0214073
-0.021407
-0.021406
-0.0214045
-0.0214023
-0.0213995
-0.021396
-0.0213917
-0.021386
-0.0213787
-0.0213697
-0.0213607
-0.0213521
-0.0213498
-0.0213564
-0.0213657
-0.0213753
-0.021384
-0.021391
-0.0213966
-0.0214011
-0.0214048
-0.0214078
-0.0214099
-0.0214112
-0.0214118
-0.0214115
-0.0214104
-0.0214083
-0.0214053
-0.0214014
-0.0213967
-0.0213913
-0.0213854
-0.0213795
-0.0213744
-0.0213705
-0.0213696
-0.0218067
-0.0218076
-0.0218112
-0.0218155
-0.0218202
-0.0218248
-0.021829
-0.0218327
-0.0218357
-0.0218381
-0.0218399
-0.0218409
-0.0218412
-0.021841
-0.02184
-0.0218385
-0.0218364
-0.0218336
-0.0218301
-0.0218258
-0.0218201
-0.0218126
-0.0218029
-0.0217928
-0.0217837
-0.0217814
-0.0217881
-0.0217983
-0.021809
-0.0218181
-0.0218254
-0.021831
-0.0218355
-0.0218392
-0.0218421
-0.0218442
-0.0218455
-0.021846
-0.0218457
-0.0218445
-0.0218425
-0.0218396
-0.0218358
-0.0218312
-0.021826
-0.0218203
-0.0218147
-0.0218098
-0.021806
-0.0218052
-0.0222436
-0.0222445
-0.0222478
-0.0222519
-0.0222564
-0.0222608
-0.0222648
-0.0222684
-0.0222714
-0.0222737
-0.0222754
-0.0222764
-0.0222768
-0.0222765
-0.0222757
-0.0222742
-0.0222721
-0.0222694
-0.0222659
-0.0222616
-0.0222559
-0.0222482
-0.0222379
-0.0222269
-0.0222173
-0.0222149
-0.0222219
-0.0222329
-0.0222444
-0.022254
-0.0222613
-0.0222669
-0.0222715
-0.0222752
-0.022278
-0.02228
-0.0222813
-0.0222818
-0.0222815
-0.0222803
-0.0222783
-0.0222755
-0.0222718
-0.0222673
-0.0222623
-0.0222569
-0.0222515
-0.0222468
-0.0222431
-0.0222423
-0.022682
-0.0226829
-0.0226861
-0.02269
-0.0226943
-0.0226984
-0.0227023
-0.0227057
-0.0227086
-0.0227109
-0.0227126
-0.0227136
-0.022714
-0.0227138
-0.0227129
-0.0227115
-0.0227095
-0.0227068
-0.0227033
-0.022699
-0.0226933
-0.0226855
-0.0226748
-0.0226631
-0.0226529
-0.0226505
-0.0226577
-0.0226695
-0.0226816
-0.0226915
-0.0226989
-0.0227045
-0.0227091
-0.0227127
-0.0227155
-0.0227175
-0.0227187
-0.0227192
-0.0227188
-0.0227177
-0.0227157
-0.022713
-0.0227094
-0.0227051
-0.0227002
-0.022695
-0.0226898
-0.0226853
-0.0226818
-0.022681
-0.023122
-0.0231229
-0.0231259
-0.0231296
-0.0231337
-0.0231377
-0.0231414
-0.0231447
-0.0231475
-0.0231498
-0.0231514
-0.0231524
-0.0231528
-0.0231526
-0.0231518
-0.0231504
-0.0231484
-0.0231457
-0.0231423
-0.023138
-0.0231324
-0.0231245
-0.0231136
-0.0231012
-0.0230907
-0.0230882
-0.0230956
-0.023108
-0.0231206
-0.0231306
-0.023138
-0.0231437
-0.0231483
-0.0231519
-0.0231546
-0.0231566
-0.0231578
-0.0231582
-0.0231579
-0.0231567
-0.0231548
-0.0231521
-0.0231486
-0.0231445
-0.0231398
-0.0231348
-0.0231298
-0.0231255
-0.0231221
-0.0231213
-0.0235637
-0.0235645
-0.0235674
-0.0235709
-0.0235748
-0.0235786
-0.0235822
-0.0235854
-0.0235881
-0.0235903
-0.0235919
-0.0235929
-0.0235933
-0.0235931
-0.0235923
-0.0235909
-0.023589
-0.0235864
-0.0235829
-0.0235787
-0.023573
-0.0235652
-0.0235542
-0.0235414
-0.0235305
-0.0235281
-0.0235355
-0.0235484
-0.0235613
-0.0235714
-0.0235789
-0.0235845
-0.0235891
-0.0235927
-0.0235954
-0.0235973
-0.0235984
-0.0235988
-0.0235985
-0.0235974
-0.0235955
-0.0235929
-0.0235895
-0.0235855
-0.023581
-0.0235761
-0.0235714
-0.0235672
-0.0235639
-0.0235631
-0.0240069
-0.0240077
-0.0240105
-0.0240138
-0.0240175
-0.0240211
-0.0240246
-0.0240276
-0.0240303
-0.0240324
-0.024034
-0.024035
-0.0240354
-0.0240352
-0.0240344
-0.0240331
-0.0240312
-0.0240286
-0.0240252
-0.024021
-0.0240154
-0.0240077
-0.0239966
-0.0239835
-0.0239725
-0.02397
-0.0239776
-0.0239907
-0.0240038
-0.0240139
-0.0240213
-0.024027
-0.0240316
-0.0240351
-0.0240377
-0.0240396
-0.0240407
-0.0240411
-0.0240408
-0.0240397
-0.0240379
-0.0240353
-0.024032
-0.0240281
-0.0240238
-0.0240191
-0.0240145
-0.0240106
-0.0240074
-0.0240066
-0.0244517
-0.0244525
-0.0244551
-0.0244583
-0.0244618
-0.0244653
-0.0244686
-0.0244716
-0.0244741
-0.0244762
-0.0244778
-0.0244787
-0.0244791
-0.024479
-0.0244782
-0.0244769
-0.024475
-0.0244725
-0.0244691
-0.0244649
-0.0244594
-0.0244518
-0.0244408
-0.0244277
-0.0244165
-0.024414
-0.0244216
-0.024435
-0.0244481
-0.0244581
-0.0244655
-0.0244711
-0.0244757
-0.0244792
-0.0244818
-0.0244836
-0.0244847
-0.0244851
-0.0244847
-0.0244836
-0.0244818
-0.0244793
-0.0244762
-0.0244724
-0.0244682
-0.0244638
-0.0244594
-0.0244555
-0.0244525
-0.0244517
-0.0248982
-0.0248989
-0.0249014
-0.0249044
-0.0249078
-0.0249111
-0.0249143
-0.0249172
-0.0249196
-0.0249217
-0.0249232
-0.0249241
-0.0249245
-0.0249244
-0.0249237
-0.0249224
-0.0249205
-0.024918
-0.0249147
-0.0249105
-0.0249051
-0.0248976
-0.0248869
-0.0248737
-0.0248626
-0.0248601
-0.0248677
-0.0248811
-0.0248941
-0.024904
-0.0249113
-0.0249169
-0.0249214
-0.0249248
-0.0249274
-0.0249292
-0.0249303
-0.0249307
-0.0249303
-0.0249292
-0.0249275
-0.024925
-0.024922
-0.0249183
-0.0249143
-0.02491
-0.0249058
-0.0249021
-0.0248992
-0.0248985
-0.0253462
-0.025347
-0.0253494
-0.0253522
-0.0253554
-0.0253586
-0.0253616
-0.0253644
-0.0253668
-0.0253688
-0.0253703
-0.0253712
-0.0253716
-0.0253715
-0.0253708
-0.0253695
-0.0253677
-0.0253652
-0.025362
-0.0253578
-0.0253524
-0.0253452
-0.0253347
-0.0253217
-0.0253106
-0.0253082
-0.0253157
-0.025329
-0.0253418
-0.0253515
-0.0253587
-0.0253644
-0.0253688
-0.0253722
-0.0253747
-0.0253765
-0.0253775
-0.0253779
-0.0253775
-0.0253765
-0.0253748
-0.0253724
-0.0253694
-0.0253659
-0.025362
-0.0253579
-0.0253539
-0.0253504
-0.0253476
-0.0253468
-0.0257959
-0.0257966
-0.0257989
-0.0258016
-0.0258047
-0.0258077
-0.0258106
-0.0258133
-0.0258157
-0.0258176
-0.025819
-0.0258199
-0.0258203
-0.0258202
-0.0258195
-0.0258183
-0.0258165
-0.0258141
-0.0258109
-0.0258067
-0.0258014
-0.0257944
-0.0257843
-0.0257716
-0.0257606
-0.0257582
-0.0257656
-0.0257788
-0.0257913
-0.0258008
-0.0258079
-0.0258135
-0.0258178
-0.0258212
-0.0258237
-0.0258254
-0.0258264
-0.0258268
-0.0258264
-0.0258254
-0.0258238
-0.0258214
-0.0258186
-0.0258152
-0.0258114
-0.0258075
-0.0258036
-0.0258002
-0.0257975
-0.0257968
-0.0262472
-0.0262479
-0.0262501
-0.0262527
-0.0262556
-0.0262585
-0.0262613
-0.0262639
-0.0262662
-0.026268
-0.0262694
-0.0262704
-0.0262707
-0.0262706
-0.02627
-0.0262688
-0.026267
-0.0262646
-0.0262614
-0.0262574
-0.0262522
-0.0262453
-0.0262356
-0.0262233
-0.0262126
-0.0262102
-0.0262175
-0.0262304
-0.0262426
-0.0262518
-0.0262587
-0.0262642
-0.0262686
-0.0262719
-0.0262743
-0.026276
-0.026277
-0.0262774
-0.026277
-0.026276
-0.0262744
-0.0262721
-0.0262694
-0.0262661
-0.0262625
-0.0262587
-0.0262549
-0.0262517
-0.0262491
-0.0262484
-0.0267002
-0.0267009
-0.026703
-0.0267054
-0.0267082
-0.026711
-0.0267137
-0.0267162
-0.0267184
-0.0267202
-0.0267216
-0.0267224
-0.0267228
-0.0267227
-0.0267221
-0.0267209
-0.0267191
-0.0267168
-0.0267137
-0.0267097
-0.0267046
-0.026698
-0.0266887
-0.0266768
-0.0266664
-0.0266641
-0.0266712
-0.0266838
-0.0266955
-0.0267044
-0.0267113
-0.0267167
-0.026721
-0.0267242
-0.0267266
-0.0267283
-0.0267293
-0.0267296
-0.0267293
-0.0267283
-0.0267267
-0.0267245
-0.0267218
-0.0267187
-0.0267152
-0.0267115
-0.026708
-0.0267049
-0.0267024
-0.0267016
-0.0271548
-0.0271555
-0.0271575
-0.0271598
-0.0271625
-0.0271651
-0.0271677
-0.0271701
-0.0271722
-0.027174
-0.0271754
-0.0271762
-0.0271766
-0.0271765
-0.0271759
-0.0271747
-0.027173
-0.0271707
-0.0271676
-0.0271637
-0.0271588
-0.0271523
-0.0271434
-0.027132
-0.027122
-0.0271198
-0.0271267
-0.0271389
-0.0271502
-0.0271588
-0.0271655
-0.0271708
-0.027175
-0.0271782
-0.0271806
-0.0271822
-0.0271832
-0.0271835
-0.0271832
-0.0271822
-0.0271807
-0.0271786
-0.027176
-0.0271729
-0.0271696
-0.0271661
-0.0271626
-0.0271597
-0.0271572
-0.0271565
-0.0276111
-0.0276118
-0.0276137
-0.0276159
-0.0276184
-0.0276209
-0.0276234
-0.0276258
-0.0276278
-0.0276295
-0.0276308
-0.0276317
-0.0276321
-0.027632
-0.0276314
-0.0276302
-0.0276285
-0.0276263
-0.0276233
-0.0276195
-0.0276146
-0.0276084
-0.0276
-0.0275891
-0.0275795
-0.0275774
-0.027584
-0.0275957
-0.0276066
-0.0276149
-0.0276214
-0.0276267
-0.0276308
-0.0276339
-0.0276363
-0.0276379
-0.0276388
-0.0276391
-0.0276388
-0.0276379
-0.0276364
-0.0276343
-0.0276318
-0.0276289
-0.0276256
-0.0276223
-0.027619
-0.0276161
-0.0276138
-0.0276131
-0.0280691
-0.0280697
-0.0280715
-0.0280736
-0.028076
-0.0280785
-0.0280809
-0.0280831
-0.0280851
-0.0280868
-0.028088
-0.0280889
-0.0280892
-0.0280891
-0.0280885
-0.0280874
-0.0280858
-0.0280835
-0.0280806
-0.0280769
-0.0280722
-0.0280662
-0.0280582
-0.0280479
-0.0280387
-0.0280367
-0.0280431
-0.0280544
-0.0280647
-0.0280727
-0.0280791
-0.0280842
-0.0280882
-0.0280913
-0.0280936
-0.0280952
-0.0280961
-0.0280964
-0.0280961
-0.0280952
-0.0280938
-0.0280918
-0.0280893
-0.0280865
-0.0280834
-0.0280801
-0.028077
-0.0280742
-0.028072
-0.0280713
-0.0285287
-0.0285293
-0.028531
-0.028533
-0.0285353
-0.0285377
-0.02854
-0.0285421
-0.0285441
-0.0285457
-0.0285469
-0.0285478
-0.0285481
-0.028548
-0.0285474
-0.0285463
-0.0285447
-0.0285425
-0.0285397
-0.028536
-0.0285314
-0.0285257
-0.0285181
-0.0285084
-0.0284997
-0.0284978
-0.0285039
-0.0285147
-0.0285245
-0.0285322
-0.0285384
-0.0285435
-0.0285474
-0.0285504
-0.0285527
-0.0285542
-0.0285552
-0.0285555
-0.0285551
-0.0285543
-0.0285528
-0.0285509
-0.0285485
-0.0285458
-0.0285428
-0.0285397
-0.0285366
-0.028534
-0.0285319
-0.0285312
-0.02899
-0.0289906
-0.0289922
-0.0289942
-0.0289963
-0.0289986
-0.0290008
-0.0290029
-0.0290048
-0.0290063
-0.0290076
-0.0290083
-0.0290087
-0.0290086
-0.029008
-0.029007
-0.0290054
-0.0290032
-0.0290005
-0.0289969
-0.0289924
-0.028987
-0.0289798
-0.0289706
-0.0289624
-0.0289606
-0.0289665
-0.0289767
-0.0289861
-0.0289935
-0.0289995
-0.0290044
-0.0290083
-0.0290112
-0.0290134
-0.029015
-0.0290159
-0.0290162
-0.0290159
-0.029015
-0.0290136
-0.0290118
-0.0290095
-0.0290068
-0.0290039
-0.0290009
-0.028998
-0.0289955
-0.0289934
-0.0289928
-0.029453
-0.0294536
-0.0294551
-0.029457
-0.0294591
-0.0294612
-0.0294633
-0.0294654
-0.0294672
-0.0294687
-0.0294699
-0.0294707
-0.029471
-0.0294709
-0.0294704
-0.0294693
-0.0294678
-0.0294657
-0.0294629
-0.0294595
-0.0294552
-0.0294499
-0.0294432
-0.0294346
-0.0294269
-0.0294252
-0.0294307
-0.0294405
-0.0294493
-0.0294565
-0.0294623
-0.0294671
-0.0294708
-0.0294737
-0.0294759
-0.0294774
-0.0294783
-0.0294786
-0.0294783
-0.0294775
-0.0294761
-0.0294743
-0.0294721
-0.0294695
-0.0294668
-0.0294639
-0.0294611
-0.0294587
-0.0294567
-0.029456
-0.0299177
-0.0299182
-0.0299197
-0.0299215
-0.0299235
-0.0299255
-0.0299276
-0.0299296
-0.0299313
-0.0299328
-0.0299339
-0.0299347
-0.029935
-0.0299349
-0.0299344
-0.0299334
-0.0299319
-0.0299298
-0.0299272
-0.0299238
-0.0299196
-0.0299146
-0.0299083
-0.0299002
-0.029893
-0.0298914
-0.0298967
-0.029906
-0.0299144
-0.0299212
-0.0299269
-0.0299315
-0.0299352
-0.029938
-0.0299401
-0.0299416
-0.0299425
-0.0299427
-0.0299425
-0.0299417
-0.0299404
-0.0299386
-0.0299364
-0.029934
-0.0299313
-0.0299285
-0.0299258
-0.0299235
-0.0299216
-0.029921
-0.0303841
-0.0303846
-0.0303861
-0.0303877
-0.0303896
-0.0303916
-0.0303936
-0.0303955
-0.0303972
-0.0303986
-0.0303997
-0.0304005
-0.0304008
-0.0304007
-0.0304002
-0.0303992
-0.0303977
-0.0303957
-0.0303931
-0.0303899
-0.0303858
-0.030381
-0.0303751
-0.0303676
-0.0303609
-0.0303594
-0.0303644
-0.0303732
-0.0303811
-0.0303876
-0.0303931
-0.0303976
-0.0304012
-0.030404
-0.030406
-0.0304075
-0.0304083
-0.0304086
-0.0304084
-0.0304076
-0.0304063
-0.0304046
-0.0304025
-0.0304001
-0.0303975
-0.0303949
-0.0303923
-0.0303901
-0.0303883
-0.0303876
-0.0308522
-0.0308527
-0.0308541
-0.0308557
-0.0308575
-0.0308594
-0.0308613
-0.0308631
-0.0308648
-0.0308662
-0.0308673
-0.030868
-0.0308683
-0.0308682
-0.0308677
-0.0308667
-0.0308653
-0.0308633
-0.0308608
-0.0308577
-0.0308538
-0.0308492
-0.0308436
-0.0308366
-0.0308304
-0.030829
-0.0308338
-0.0308421
-0.0308495
-0.0308558
-0.0308611
-0.0308655
-0.0308689
-0.0308717
-0.0308737
-0.0308751
-0.030876
-0.0308762
-0.030876
-0.0308752
-0.030874
-0.0308723
-0.0308703
-0.030868
-0.0308655
-0.030863
-0.0308605
-0.0308584
-0.0308566
-0.030856
-0.031322
-0.0313225
-0.0313238
-0.0313254
-0.0313271
-0.0313289
-0.0313308
-0.0313325
-0.0313341
-0.0313355
-0.0313365
-0.0313372
-0.0313375
-0.0313374
-0.0313369
-0.031336
-0.0313346
-0.0313327
-0.0313302
-0.0313272
-0.0313235
-0.0313191
-0.0313138
-0.0313074
-0.0313016
-0.0313003
-0.0313049
-0.0313127
-0.0313197
-0.0313257
-0.0313308
-0.0313351
-0.0313384
-0.0313411
-0.0313431
-0.0313445
-0.0313453
-0.0313456
-0.0313453
-0.0313446
-0.0313434
-0.0313418
-0.0313399
-0.0313376
-0.0313352
-0.0313328
-0.0313304
-0.0313283
-0.0313267
-0.031326
-0.0317936
-0.0317941
-0.0317953
-0.0317968
-0.0317985
-0.0318002
-0.031802
-0.0318037
-0.0318052
-0.0318065
-0.0318075
-0.0318082
-0.0318085