/*--------------------------------*- C++ -*----------------------------------*\
| =========                 |                                                 |
| \\      /  F ield         | OpenFOAM: The Open Source CFD Toolbox           |
|  \\    /   O peration     | Version:  v1612+                                |
|   \\  /    A nd           | Web:      www.OpenFOAM.com                      |
|    \\/     M anipulation  |                                                 |
\*---------------------------------------------------------------------------*/
FoamFile
{
    version     2.0;
    format      ascii;
    class       surfaceScalarField;
    location    "290.1";
    object      phi;
}
// * * * * * * * * * * * * * * * * * * * * * * * * * * * * * * * * * * * * * //

dimensions      [0 3 -1 0 0 0 0];

internalField   nonuniform List<scalar> 
79150
(
3.92929e-10
-3.92928e-10
4.3777e-10
-4.48416e-11
4.2894e-10
8.83019e-12
3.79043e-10
4.98972e-11
3.29412e-10
4.96305e-11
2.88456e-10
4.09562e-11
2.52403e-10
3.60533e-11
2.17542e-10
3.4861e-11
1.80582e-10
3.69599e-11
1.39341e-10
4.12413e-11
9.41448e-11
4.51957e-11
4.92357e-11
4.49091e-11
1.2257e-11
3.69787e-11
-1.13095e-11
2.35665e-11
-2.04365e-11
9.12696e-12
-2.01489e-11
-2.8758e-13
-1.67782e-11
-3.37068e-12
-1.3985e-11
-2.79319e-12
-5.37988e-12
-8.60515e-12
6.98993e-12
-1.23698e-11
7.71056e-12
-7.20632e-13
-1.80773e-11
2.57879e-11
-5.80644e-11
3.99871e-11
-7.09292e-11
1.28648e-11
-2.61826e-11
-4.47466e-11
4.76382e-11
-7.38208e-11
6.90545e-11
-2.14164e-11
3.83489e-11
3.07056e-11
6.65471e-13
3.76835e-11
-1.17063e-11
1.23718e-11
-4.74719e-13
-1.12316e-11
1.16657e-11
-1.21404e-11
1.54178e-11
-3.75211e-12
1.88958e-11
-3.47799e-12
2.09759e-11
-2.08013e-12
1.50344e-11
5.94149e-12
-5.90038e-12
2.09348e-11
-4.25431e-11
3.66427e-11
-9.04068e-11
4.78637e-11
-1.40146e-10
4.97396e-11
-1.85282e-10
4.51357e-11
-2.24186e-10
3.89036e-11
-2.58681e-10
3.4495e-11
-2.92309e-10
3.36285e-11
-3.29763e-10
3.7454e-11
-3.7604e-10
4.62771e-11
-4.24236e-10
4.81953e-11
-4.33586e-10
9.35033e-12
-3.90434e-10
-4.31516e-11
-3.90434e-10
3.1542e-10
-7.08348e-10
4.22257e-10
-1.51678e-10
4.99766e-10
-6.86793e-11
5.33932e-10
1.57308e-11
5.45138e-10
3.84244e-11
5.43417e-10
4.2678e-11
5.30089e-10
4.93813e-11
5.06145e-10
5.88051e-11
4.70736e-10
7.23689e-11
4.20816e-10
9.11614e-11
3.52571e-10
1.1344e-10
2.64446e-10
1.33034e-10
1.62509e-10
1.38915e-10
6.56509e-11
1.20425e-10
-1.0466e-12
7.58244e-11
-2.92108e-11
2.78766e-11
-3.43126e-11
1.73114e-12
-3.07171e-11
-6.38876e-12
-1.54985e-11
-2.38237e-11
5.06454e-12
-3.29329e-11
-6.57732e-12
1.09212e-11
-6.48563e-11
8.40669e-11
-1.16709e-10
9.18401e-11
-1.07979e-10
4.13476e-12
-3.41499e-11
-1.18576e-10
6.64888e-11
-1.7446e-10
1.15394e-10
-7.03216e-11
9.43764e-11
5.17233e-11
2.90584e-11
1.03001e-10
-8.49737e-12
4.99276e-11
4.52638e-12
-2.42553e-11
2.61058e-11
-3.37198e-11
3.2913e-11
-1.05593e-11
3.15497e-11
-2.11472e-12
1.14761e-11
1.79934e-11
-4.73975e-11
6.48151e-11
-1.44066e-10
1.17603e-10
-2.52896e-10
1.45473e-10
-3.493e-10
1.44268e-10
-4.2345e-10
1.23889e-10
-4.75865e-10
9.75516e-11
-5.109e-10
7.3938e-11
-5.32638e-10
5.62333e-11
-5.43025e-10
4.40157e-11
-5.42159e-10
3.65871e-11
-5.29491e-10
3.36094e-11
-4.95261e-10
1.3965e-11
-4.18567e-10
-6.73428e-11
-3.1309e-10
-1.48629e-10
-7.03525e-10
2.55113e-10
-9.63461e-10
3.62019e-10
-2.58584e-10
4.31665e-10
-1.38326e-10
4.82228e-10
-3.48318e-11
5.19509e-10
1.14324e-12
5.47958e-10
1.42289e-11
5.66932e-10
3.04072e-11
5.757e-10
5.00378e-11
5.73261e-10
7.48072e-11
5.56402e-10
1.08021e-10
5.18677e-10
1.51165e-10
4.50864e-10
2.00848e-10
3.46014e-10
2.43765e-10
2.12512e-10
2.53928e-10
8.25311e-11
2.05805e-10
-3.46065e-12
1.13868e-10
-3.60953e-11
3.43658e-11
-3.9523e-11
-2.96104e-12
-2.46879e-11
-3.86588e-11
-6.08149e-12
-5.15393e-11
-3.07802e-11
3.56199e-11
-9.86555e-11
1.51942e-10
-1.37411e-10
1.30596e-10
-1.12635e-10
-2.06411e-11
-3.34218e-11
-1.9779e-10
6.94745e-11
-2.77356e-10
1.28173e-10
-1.2902e-10
1.23905e-10
5.59911e-11
5.97042e-11
1.67202e-10
7.815e-12
1.01817e-10
1.34547e-11
-2.9895e-11
3.50539e-11
-5.53191e-11
3.80734e-11
-1.35788e-11
1.66527e-11
1.93061e-11
-5.61443e-11
9.07904e-11
-1.83268e-10
1.91939e-10
-3.25413e-10
2.59748e-10
-4.41985e-10
2.62045e-10
-5.17739e-10
2.20022e-10
-5.5851e-10
1.6466e-10
-5.75193e-10
1.14235e-10
-5.75995e-10
7.47397e-11
-5.65297e-10
4.55355e-11
-5.44706e-10
2.34245e-11
-5.15308e-10
7.18935e-12
-4.77593e-10
-4.10584e-12
-4.27194e-10
-3.64334e-11
-3.58211e-10
-1.36326e-10
-2.52837e-10
-2.54003e-10
-9.56361e-10
2.06396e-10
-1.16986e-09
3.09224e-10
-3.61413e-10
3.74759e-10
-2.0386e-10
4.25778e-10
-8.58514e-11
4.64303e-10
-3.73811e-11
4.9553e-10
-1.69989e-11
5.21486e-10
4.45142e-12
5.42079e-10
2.94447e-11
5.57487e-10
5.93994e-11
5.66453e-10
9.9055e-11
5.64354e-10
1.53264e-10
5.40468e-10
2.24734e-10
4.77488e-10
3.06745e-10
3.62537e-10
3.68878e-10
2.09429e-10
3.58913e-10
6.65882e-11
2.5671e-10
-1.69197e-11
1.17874e-10
-4.1421e-11
2.15402e-11
-3.40222e-11
-4.60575e-11
-2.30883e-11
-6.24732e-11
-5.45982e-11
6.71298e-11
-1.17055e-10
2.14399e-10
-1.40416e-10
1.53957e-10
-1.09143e-10
-5.19133e-11
-3.13879e-11
-2.75545e-10
7.00574e-11
-3.78801e-10
1.29633e-10
-1.88595e-10
1.35722e-10
4.99024e-11
8.3033e-11
2.19891e-10
2.8975e-11
1.55875e-10
2.5975e-11
-2.68949e-11
4.02858e-11
-6.963e-11
2.80228e-11
-1.31575e-12
-3.75152e-11
8.48441e-11
-1.7181e-10
2.25085e-10
-3.33106e-10
3.53234e-10
-4.63381e-10
3.90024e-10
-5.37716e-10
3.3638e-10
-5.66059e-10
2.48365e-10
-5.68457e-10
1.67058e-10
-5.58402e-10
1.0418e-10
-5.4172e-10
5.80572e-11
-5.19981e-10
2.37971e-11
-4.93e-10
-3.55669e-12
-4.60783e-10
-2.50281e-11
-4.21491e-10
-4.33972e-11
-3.70222e-10
-8.77029e-11
-3.05285e-10
-2.01263e-10
-2.04114e-10
-3.55174e-10
-1.16048e-09
1.719e-10
-1.34176e-09
2.70002e-10
-4.59514e-10
3.32217e-10
-2.66075e-10
3.82236e-10
-1.3587e-10
4.20945e-10
-7.60905e-11
4.51811e-10
-4.78655e-11
4.77109e-10
-2.08459e-11
4.97603e-10
8.95044e-12
5.14544e-10
4.24587e-11
5.29293e-10
8.43059e-11
5.41972e-10
1.40584e-10
5.48096e-10
2.18609e-10
5.32005e-10
3.22837e-10
4.66652e-10
4.34231e-10
3.36617e-10
4.88948e-10
1.7016e-10
4.23167e-10
3.28053e-11
2.55228e-10
-3.22728e-11
8.66184e-11
-4.19458e-11
-3.63846e-11
-4.03644e-11
-6.40546e-11
-7.20636e-11
9.88289e-11
-1.23432e-10
2.65767e-10
-1.35573e-10
1.66098e-10
-1.03287e-10
-8.41993e-11
-2.87511e-11
-3.50081e-10
6.96557e-11
-4.77208e-10
1.26771e-10
-2.4571e-10
1.37382e-10
3.92917e-11
9.66622e-11
2.6061e-10
4.7763e-11
2.04774e-10
3.83746e-11
-1.75065e-11
3.88694e-11
-7.01247e-11
-6.68177e-12
4.42354e-11
-1.27893e-10
2.06055e-10
-2.98125e-10
3.95317e-10
-4.46018e-10
5.01127e-10
-5.27707e-10
4.71713e-10
-5.50997e-10
3.5967e-10
-5.45871e-10
2.43238e-10
-5.32488e-10
1.53675e-10
-5.1691e-10
8.86017e-11
-4.99027e-10
4.01741e-11
-4.77338e-10
2.10885e-12
-4.50594e-10
-3.03009e-11
-4.18183e-10
-5.74398e-11
-3.78219e-10
-8.33609e-11
-3.27704e-10
-1.38218e-10
-2.66041e-10
-2.62926e-10
-1.69654e-10
-4.51561e-10
-1.33013e-09
1.439e-10
-1.48566e-09
2.36877e-10
-5.52492e-10
2.98056e-10
-3.27254e-10
3.48918e-10
-1.86731e-10
3.89138e-10
-1.1631e-10
4.20658e-10
-7.93864e-11
4.45823e-10
-4.60104e-11
4.65465e-10
-1.06913e-11
4.80592e-10
2.73315e-11
4.9299e-10
7.19078e-11
5.04994e-10
1.28581e-10
5.18686e-10
2.04917e-10
5.29295e-10
3.12228e-10
5.12462e-10
4.51064e-10
4.3158e-10
5.6983e-10
2.80485e-10
5.74262e-10
1.11011e-10
4.24702e-10
-3.17586e-12
2.00805e-10
-4.37595e-11
4.19902e-12
-5.31231e-11
-5.46909e-11
-8.1109e-11
1.26815e-10
-1.21275e-10
3.05933e-10
-1.26641e-10
1.71464e-10
-9.61192e-11
-1.14721e-10
-2.57204e-11
-4.20479e-10
6.81376e-11
-5.71066e-10
1.21457e-10
-2.9903e-10
1.32972e-10
2.77765e-11
1.01295e-10
2.92288e-10
6.01151e-11
2.45953e-10
4.55405e-11
-2.93189e-12
2.25596e-11
-4.71439e-11
-7.03204e-11
1.37115e-10
-2.33908e-10
3.69643e-10
-4.014e-10
5.62809e-10
-5.04177e-10
6.03904e-10
-5.33238e-10
5.00774e-10
-5.24958e-10
3.5139e-10
-5.1066e-10
2.28941e-10
-4.98164e-10
1.41179e-10
-4.8518e-10
7.56175e-11
-4.69015e-10
2.4009e-11
-4.4781e-10
-1.90962e-11
-4.20784e-10
-5.73268e-11
-3.87319e-10
-9.09048e-11
-3.45502e-10
-1.25178e-10
-2.93816e-10
-1.89904e-10
-2.33e-10
-3.23742e-10
-1.41705e-10
-5.42856e-10
-1.47183e-09
1.21824e-10
-1.60748e-09
2.10514e-10
-6.41183e-10
2.71688e-10
-3.88428e-10
3.23618e-10
-2.38662e-10
3.6515e-10
-1.57842e-10
3.97515e-10
-1.11752e-10
4.22969e-10
-7.14641e-11
4.42486e-10
-3.02085e-11
4.56858e-10
1.29599e-11
4.67311e-10
6.14543e-11
4.75745e-10
1.20147e-10
4.85751e-10
1.94911e-10
5.01569e-10
2.9641e-10
5.13523e-10
4.3911e-10
4.83068e-10
6.00285e-10
3.73428e-10
6.83902e-10
2.03508e-10
5.94622e-10
4.84568e-11
3.55857e-10
-3.41348e-11
8.67907e-11
-5.86286e-11
-3.01972e-11
-8.2007e-11
1.50193e-10
-1.13115e-10
3.37041e-10
-1.15152e-10
1.73501e-10
-8.79187e-11
-1.41954e-10
-2.25182e-11
-4.8588e-10
6.55472e-11
-6.59131e-10
1.14224e-10
-3.47707e-10
1.24416e-10
1.75847e-11
9.84336e-11
3.1827e-10
6.48634e-11
2.79524e-10
4.32336e-11
1.86979e-11
-1.47058e-11
1.07956e-11
-1.53565e-10
2.75974e-10
-3.3164e-10
5.47718e-10
-4.65969e-10
6.97139e-10
-5.1616e-10
6.54095e-10
-5.10159e-10
4.94773e-10
-4.93718e-10
3.34949e-10
-4.83283e-10
2.18505e-10
-4.74784e-10
1.3268e-10
-4.63774e-10
6.46078e-11
-4.48204e-10
8.4387e-12
-4.26871e-10
-4.04293e-11
-3.99216e-10
-8.49814e-11
-3.64523e-10
-1.25598e-10
-3.21003e-10
-1.68697e-10
-2.67901e-10
-2.43006e-10
-2.06833e-10
-3.8481e-10
-1.19717e-10
-6.29972e-10
-1.59155e-09
1.04105e-10
-1.71159e-09
1.89196e-10
-7.26274e-10
2.5078e-10
-4.50012e-10
3.03819e-10
-2.91701e-10
3.46603e-10
-2.00625e-10
3.79846e-10
-1.44995e-10
4.05707e-10
-9.7325e-11
4.2534e-10
-4.98418e-11
4.39524e-10
-1.22427e-12
4.49215e-10
5.17632e-11
4.55677e-10
1.13685e-10
4.6122e-10
1.89368e-10
4.7191e-10
2.8572e-10
4.91768e-10
4.19251e-10
4.96747e-10
5.95307e-10
4.36398e-10
7.44251e-10
2.9253e-10
7.3849e-10
1.18511e-10
5.29875e-10
-7.14468e-12
2.12446e-10
-5.55167e-11
1.81748e-11
-7.60972e-11
1.70774e-10
-1.00681e-10
3.61625e-10
-1.01898e-10
1.74718e-10
-7.89281e-11
-1.64924e-10
-1.93069e-11
-5.45501e-10
6.19749e-11
-7.40413e-10
1.05161e-10
-3.90893e-10
1.12574e-10
1.01712e-11
8.95637e-11
3.41281e-10
6.23867e-11
3.06701e-10
2.7429e-11
5.36555e-11
-7.18587e-11
1.10083e-10
-2.41303e-10
4.45419e-10
-4.05685e-10
7.121e-10
-4.92879e-10
7.84332e-10
-5.01387e-10
6.62603e-10
-4.82333e-10
4.75719e-10
-4.70614e-10
3.2323e-10
-4.6542e-10
2.13311e-10
-4.59085e-10
1.26346e-10
-4.48787e-10
5.43098e-11
-4.33253e-10
-7.09589e-12
-4.11591e-10
-6.20909e-11
-3.83243e-10
-1.13329e-10
-3.47336e-10
-1.61506e-10
-3.02196e-10
-2.13837e-10
-2.47612e-10
-2.9759e-10
-1.85811e-10
-4.46612e-10
-1.02119e-10
-7.13664e-10
-1.69367e-09
8.99773e-11
-1.80156e-09
1.72032e-10
-8.08329e-10
2.34005e-10
-5.11985e-10
2.87863e-10
-3.45558e-10
3.31562e-10
-2.44325e-10
3.65477e-10
-1.7891e-10
3.91681e-10
-1.23529e-10
4.11482e-10
-6.96428e-11
4.25693e-10
-1.54354e-11
4.35207e-10
4.22489e-11
4.41035e-10
1.07858e-10
4.44457e-10
1.85946e-10
4.49308e-10
2.8087e-10
4.64918e-10
4.03641e-10
4.86109e-10
5.74115e-10
4.68169e-10
7.62191e-10
3.65082e-10
8.41576e-10
1.95946e-10
6.99012e-10
3.60707e-11
3.72321e-10
-4.24099e-11
9.66554e-11
-6.50478e-11
1.93412e-10
-8.51641e-11
3.81741e-10
-8.74044e-11
1.76958e-10
-6.94175e-11
-1.82911e-10
-1.62082e-11
-5.9871e-10
5.74921e-11
-8.14113e-10
9.42158e-11
-4.27617e-10
9.783e-11
6.557e-12
7.59579e-11
3.63153e-10
5.31192e-11
3.29539e-10
-3.64425e-12
1.10419e-10
-1.41749e-10
2.48188e-10
-3.19665e-10
6.23335e-10
-4.51078e-10
8.43513e-10
-4.92529e-10
8.25784e-10
-4.77709e-10
6.47783e-10
-4.60579e-10
4.58588e-10
-4.5573e-10
3.18382e-10
-4.53159e-10
2.1074e-10
-4.47455e-10
1.20642e-10
-4.37267e-10
4.41214e-11
-4.2157e-10
-2.2793e-11
-3.99562e-10
-8.40984e-11
-3.70624e-10
-1.42267e-10
-3.33746e-10
-1.98384e-10
-2.87342e-10
-2.6024e-10
-2.31569e-10
-3.53363e-10
-1.6902e-10
-5.09161e-10
-8.81412e-11
-7.94543e-10
-1.78181e-09
7.86762e-11
-1.88024e-09
1.58003e-10
-8.87656e-10
2.2015e-10
-5.74132e-10
2.74444e-10
-3.99852e-10
3.18689e-10
-2.88569e-10
3.53031e-10
-2.13252e-10
3.79458e-10
-1.49957e-10
3.99395e-10
-8.95791e-11
4.13723e-10
-2.97638e-11
4.23305e-10
3.26671e-11
4.29059e-10
1.02104e-10
4.31996e-10
1.83009e-10
4.33766e-10
2.791e-10
4.42102e-10
3.95304e-10
4.64748e-10
5.5147e-10
4.74827e-10
7.52112e-10
4.15201e-10
9.01202e-10
2.69526e-10
8.44686e-10
9.29658e-11
5.48882e-10
-1.75445e-11
2.07166e-10
-5.03124e-11
2.2618e-10
-6.74191e-11
3.98848e-10
-7.20524e-11
1.81591e-10
-5.9635e-11
-1.95329e-10
-1.33135e-11
-6.45032e-10
5.21609e-11
-8.79588e-10
8.13522e-11
-4.56808e-10
8.03713e-11
7.53788e-12
5.87659e-11
3.84758e-10
3.61002e-11
3.52205e-10
-4.57689e-11
1.92288e-10
-2.13932e-10
4.16351e-10
-3.80314e-10
7.89717e-10
-4.70679e-10
9.33877e-10
-4.77475e-10
8.3258e-10
-4.5584e-10
6.26148e-10
-4.46186e-10
4.48935e-10
-4.45544e-10
3.1774e-10
-4.43556e-10
2.08751e-10
-4.37874e-10
1.14961e-10
-4.27545e-10
3.37928e-11
-4.11617e-10
-3.87208e-11
-3.89321e-10
-1.06395e-10
-3.5995e-10
-1.71639e-10
-3.22378e-10
-2.35956e-10
-2.75104e-10
-3.07514e-10
-2.18528e-10
-4.09938e-10
-1.55455e-10
-5.72234e-10
-7.70157e-11
-8.72982e-10
-1.85883e-09
6.9615e-11
-1.94985e-09
1.46141e-10
-9.64182e-10
2.08395e-10
-6.36385e-10
2.62742e-10
-4.54199e-10
3.07166e-10
-3.32993e-10
3.41689e-10
-2.47775e-10
3.68202e-10
-1.7647e-10
3.88211e-10
-1.09588e-10
4.02668e-10
-4.42202e-11
4.12427e-10
2.29077e-11
4.18345e-10
9.61855e-11
4.21416e-10
1.79938e-10
4.22449e-10
2.78067e-10
4.25447e-10
3.92306e-10
4.42176e-10
5.34741e-10
4.65269e-10
7.29019e-10
4.42905e-10
9.23567e-10
3.31392e-10
9.56199e-10
1.56496e-10
7.23778e-10
1.66238e-11
3.47038e-10
-3.3207e-11
2.7601e-10
-4.81173e-11
4.13758e-10
-5.61181e-11
1.89592e-10
-4.97791e-11
-2.01668e-10
-1.06839e-11
-6.84127e-10
4.60516e-11
-9.36323e-10
6.65652e-11
-4.77322e-10
6.04025e-11
1.37005e-11
3.89529e-11
4.06208e-10
9.96446e-12
3.81193e-10
-9.79158e-11
3.00168e-10
-2.79822e-10
5.98257e-10
-4.2061e-10
9.30506e-10
-4.71371e-10
9.84638e-10
-4.57825e-10
8.19034e-10
-4.39564e-10
6.07887e-10
-4.36667e-10
4.46038e-10
-4.37344e-10
3.18417e-10
-4.35133e-10
2.0654e-10
-4.29242e-10
1.09069e-10
-4.1866e-10
2.32112e-11
-4.02509e-10
-5.48719e-11
-3.80012e-10
-1.28892e-10
-3.50377e-10
-2.01274e-10
-3.12388e-10
-2.73945e-10
-2.6463e-10
-3.55272e-10
-2.07647e-10
-4.66921e-10
-1.44147e-10
-6.35734e-10
-6.81513e-11
-9.48978e-10
-1.92698e-09
6.23068e-11
-2.01216e-09
1.36045e-10
-1.03792e-09
1.98155e-10
-6.98495e-10
2.52217e-10
-5.08261e-10
2.96499e-10
-3.77275e-10
3.30979e-10
-2.82255e-10
3.57445e-10
-2.02936e-10
3.77454e-10
-1.29598e-10
3.92018e-10
-5.87841e-11
4.01994e-10
1.29321e-11
4.08201e-10
8.99779e-11
4.1158e-10
1.76559e-10
4.12948e-10
2.767e-10
4.13578e-10
3.91676e-10
4.23058e-10
5.2526e-10
4.47858e-10
7.0422e-10
4.5199e-10
9.19434e-10
3.7761e-10
1.03058e-09
2.19263e-10
8.82124e-10
5.73867e-11
5.08915e-10
-1.32786e-11
3.46676e-10
-2.77999e-11
4.28279e-10
-3.97784e-11
2.01571e-10
-3.99957e-11
-2.0145e-10
-8.34619e-12
-7.15777e-10
3.92597e-11
-9.83929e-10
4.99295e-11
-4.87991e-10
3.78782e-11
2.57518e-11
1.81841e-11
4.25902e-10
-2.32919e-11
4.22669e-10
-1.55604e-10
4.32481e-10
-3.34218e-10
7.76871e-10
-4.42102e-10
1.03839e-09
-4.60826e-10
1.00336e-09
-4.39597e-10
7.97805e-10
-4.28488e-10
5.96777e-10
-4.29387e-10
4.46937e-10
-4.29805e-10
3.18835e-10
-4.27184e-10
2.03919e-10
-4.20956e-10
1.02841e-10
-4.10086e-10
1.23414e-11
-3.9375e-10
-7.12076e-11
-3.71149e-10
-1.51493e-10
-3.41411e-10
-2.31012e-10
-3.03257e-10
-3.12099e-10
-2.55358e-10
-4.03172e-10
-1.98321e-10
-5.23958e-10
-1.34617e-10
-6.99437e-10
-6.10566e-11
-1.02254e-09
-1.98803e-09
5.63745e-11
-2.06854e-09
1.27395e-10
-1.10894e-09
1.89037e-10
-7.60138e-10
2.42525e-10
-5.61749e-10
2.86393e-10
-4.21143e-10
3.20635e-10
-3.16497e-10
3.46936e-10
-2.29236e-10
3.66876e-10
-1.49538e-10
3.81513e-10
-7.34211e-11
3.91704e-10
2.74093e-12
3.98261e-10
8.34211e-11
4.02024e-10
1.72796e-10
4.0398e-10
2.74743e-10
4.04345e-10
3.91311e-10
4.08433e-10
5.21173e-10
4.28677e-10
6.83975e-10
4.47863e-10
9.00249e-10
4.07565e-10
1.07088e-09
2.75434e-10
1.01426e-09
1.04168e-10
6.8018e-10
1.15147e-11
4.39329e-10
-7.38638e-12
4.4718e-10
-2.31345e-11
2.17319e-10
-3.03836e-11
-1.94201e-10
-6.29066e-12
-7.3987e-10
3.19308e-11
-1.02215e-09
3.1788e-11
-4.87849e-10
1.34623e-11
4.40776e-11
-3.22964e-12
4.42594e-10
-6.18057e-11
4.81246e-10
-2.12796e-10
5.83471e-10
-3.74856e-10
9.3893e-10
-4.48653e-10
1.11219e-09
-4.45468e-10
1.00018e-09
-4.25149e-10
7.77487e-10
-4.20718e-10
5.92346e-10
-4.22738e-10
4.48957e-10
-4.22399e-10
3.18496e-10
-4.19327e-10
2.00846e-10
-4.12691e-10
9.62052e-11
-4.01543e-10
1.19364e-12
-3.85074e-10
-8.76771e-11
-3.6246e-10
-1.74107e-10
-3.32765e-10
-2.60707e-10
-2.94668e-10
-3.50195e-10
-2.46924e-10
-4.50916e-10
-1.90138e-10
-5.80745e-10
-1.26548e-10
-7.63027e-10
-5.5349e-11
-1.09374e-09
-2.04338e-09
5.15231e-11
-2.12006e-09
1.1991e-10
-1.17733e-09
1.80771e-10
-8.20999e-10
2.33439e-10
-6.14416e-10
2.76669e-10
-4.64373e-10
3.10511e-10
-3.50339e-10
3.36548e-10
-2.55273e-10
3.56361e-10
-1.69351e-10
3.71037e-10
-8.80974e-11
3.81426e-10
-7.64799e-12
3.88342e-10
7.65049e-11
3.92544e-10
1.68594e-10
3.95057e-10
2.7223e-10
3.96115e-10
3.90254e-10
3.97439e-10
5.19849e-10
4.11168e-10
6.70247e-10
4.35892e-10
8.75524e-10
4.22967e-10
1.0838e-09
3.21698e-10
1.11552e-09
1.54395e-10
8.47484e-10
4.15537e-11
5.5217e-10
1.28782e-11
4.75856e-10
-6.74e-12
2.36937e-10
-2.10048e-11
-1.79936e-10
-4.48019e-12
-7.56394e-10
2.4269e-11
-1.0509e-09
1.35201e-11
-4.771e-10
-1.03475e-11
6.79452e-11
-2.85559e-11
4.60802e-10
-1.04502e-10
5.57192e-10
-2.64641e-10
7.4361e-10
-4.01798e-10
1.07609e-09
-4.44872e-10
1.15526e-09
-4.29627e-10
9.84932e-10
-4.14496e-10
7.62356e-10
-4.14442e-10
5.92292e-10
-4.16018e-10
4.50533e-10
-4.14919e-10
3.17397e-10
-4.11356e-10
1.97284e-10
-4.04291e-10
8.91402e-11
-3.92897e-10
-1.02004e-11
-3.76343e-10
-1.04232e-10
-3.53797e-10
-1.96652e-10
-3.24271e-10
-2.90233e-10
-2.86424e-10
-3.88042e-10
-2.39085e-10
-4.98255e-10
-1.82813e-10
-6.37016e-10
-1.19654e-10
-8.26187e-10
-5.07291e-11
-1.16266e-09
-2.09411e-09
4.75231e-11
-2.16758e-09
1.13363e-10
-1.24317e-09
1.73168e-10
-8.80804e-10
2.24812e-10
-6.6606e-10
2.67227e-10
-5.06788e-10
3.00535e-10
-3.83647e-10
3.26231e-10
-2.80969e-10
3.4587e-10
-1.8899e-10
3.60553e-10
-1.02781e-10
3.71121e-10
-1.82155e-11
3.78375e-10
6.92503e-11
3.83043e-10
1.63926e-10
3.86054e-10
2.69218e-10
3.8801e-10
3.88298e-10
3.88667e-10
5.19192e-10
3.9662e-10
6.62294e-10
4.20447e-10
8.51698e-10
4.26764e-10
1.07748e-09
3.56698e-10
1.18559e-09
2.04165e-10
1.00002e-09
7.52238e-11
6.81112e-10
3.23572e-11
5.18722e-10
8.51245e-12
2.60782e-10
-1.19275e-11
-1.59497e-10
-2.86671e-12
-7.65455e-10
1.65128e-11
-1.07028e-09
-2.61338e-12
-4.57974e-10
-3.11002e-11
9.64321e-11
-5.55555e-11
4.85258e-10
-1.49426e-10
6.51063e-10
-3.08328e-10
9.02512e-10
-4.16655e-10
1.18441e-09
-4.35037e-10
1.17364e-09
-4.15586e-10
9.65481e-10
-4.06594e-10
7.53364e-10
-4.08481e-10
5.94179e-10
-4.09018e-10
4.5107e-10
-4.07263e-10
3.15642e-10
-4.03174e-10
1.93195e-10
-3.95702e-10
8.16682e-11
-3.8409e-10
-2.18119e-11
-3.67501e-10
-1.20821e-10
-3.45093e-10
-2.19061e-10
-3.1584e-10
-3.19486e-10
-2.78403e-10
-4.25479e-10
-2.31676e-10
-5.44982e-10
-1.76145e-10
-6.92547e-10
-1.13699e-10
-8.88633e-10
-4.69634e-11
-1.2294e-09
-2.14108e-09
4.41991e-11
-2.21178e-09
1.07572e-10
-1.30654e-09
1.66094e-10
-9.39325e-10
2.16549e-10
-7.16516e-10
2.58009e-10
-5.48249e-10
2.90681e-10
-4.16318e-10
3.15978e-10
-3.06265e-10
3.35412e-10
-2.08424e-10
3.50078e-10
-1.17446e-10
3.60802e-10
-2.89396e-11
3.68363e-10
6.16893e-11
3.73485e-10
1.58804e-10
3.76968e-10
2.65735e-10
3.79703e-10
3.85562e-10
3.80897e-10
5.17998e-10
3.84963e-10
6.58227e-10
4.04528e-10
8.32133e-10
4.2227e-10
1.05974e-09
3.80546e-10
1.22731e-09
2.49981e-10
1.13058e-09
1.1191e-10
8.19182e-10
5.15215e-11
5.79111e-10
2.16127e-11
2.90691e-10
-3.4132e-12
-1.34471e-10
-1.39464e-12
-7.67474e-10
8.90925e-12
-1.08058e-09
-1.57135e-11
-4.33351e-10
-4.83496e-11
1.29068e-10
-8.49539e-11
5.21862e-10
-1.94128e-10
7.60237e-10
-3.42643e-10
1.05103e-09
-4.21836e-10
1.26361e-09
-4.22519e-10
1.17433e-09
-4.04079e-10
9.47041e-10
-4.0022e-10
7.49504e-10
-4.02263e-10
5.96222e-10
-4.01718e-10
4.50526e-10
-3.99382e-10
3.13306e-10
-3.9476e-10
1.88573e-10
-3.8692e-10
7.38282e-11
-3.75125e-10
-3.36068e-11
-3.58542e-10
-1.37405e-10
-3.36324e-10
-2.41278e-10
-3.07429e-10
-3.48381e-10
-2.70534e-10
-4.62375e-10
-2.24588e-10
-5.90927e-10
-1.69989e-10
-7.47146e-10
-1.08498e-10
-9.50124e-10
-4.38865e-11
-1.29401e-09
-2.18496e-09
4.14452e-11
-2.25323e-09
1.02396e-10
-1.36749e-09
1.59452e-10
-9.96381e-10
2.08588e-10
-7.65651e-10
2.4899e-10
-5.88651e-10
2.80951e-10
-4.4828e-10
3.0581e-10
-3.31124e-10
3.25019e-10
-2.27633e-10
3.39651e-10
-1.32078e-10
3.5051e-10
-3.97988e-11
3.58344e-10
5.38552e-11
3.63881e-10
1.53267e-10
3.67822e-10
2.61794e-10
3.71156e-10
3.82229e-10
3.73341e-10
5.15813e-10
3.7549e-10
6.56078e-10
3.89825e-10
8.17798e-10
4.12565e-10
1.037e-09
3.94355e-10
1.24553e-09
2.89491e-10
1.23545e-09
1.50411e-10
9.58262e-10
7.18938e-11
6.57628e-10
3.27854e-11
3.29799e-10
3.85998e-12
-1.05545e-10
6.74975e-14
-7.63681e-10
1.53726e-12
-1.08205e-09
-2.60193e-11
-4.05794e-10
-6.40576e-11
1.67107e-10
-1.16621e-10
5.74426e-10
-2.36179e-10
8.79795e-10
-3.67547e-10
1.18239e-09
-4.19954e-10
1.31601e-09
-4.09605e-10
1.16398e-09
-3.94903e-10
9.32338e-10
-3.94398e-10
7.48999e-10
-3.95608e-10
5.97432e-10
-3.94151e-10
4.49069e-10
-3.91268e-10
3.10423e-10
-3.8614e-10
1.83444e-10
-3.77976e-10
6.56644e-11
-3.66031e-10
-4.55521e-11
-3.49487e-10
-1.53948e-10
-3.27501e-10
-2.63264e-10
-2.99028e-10
-3.76854e-10
-2.62777e-10
-4.98626e-10
-2.17748e-10
-6.35956e-10
-1.64239e-10
-8.00655e-10
-1.03903e-10
-1.01046e-09
-4.1388e-11
-1.35653e-09
-2.22635e-09
3.91338e-11
-2.29236e-09
9.77225e-11
-1.42608e-09
1.53171e-10
-1.05183e-09
2.0089e-10
-8.1337e-10
2.40161e-10
-6.27921e-10
2.71362e-10
-4.79481e-10
2.95761e-10
-3.55523e-10
3.14738e-10
-2.4661e-10
3.29325e-10
-1.46666e-10
3.403e-10
-5.07741e-11
3.48376e-10
4.57801e-11
3.54274e-10
1.47368e-10
3.5865e-10
2.57419e-10
3.62436e-10
3.78443e-10
3.65617e-10
5.12632e-10
3.67357e-10
6.54337e-10
3.77008e-10
8.08147e-10
4.00161e-10
1.01385e-09
3.99801e-10
1.24589e-09
3.21452e-10
1.31379e-09
1.89046e-10
1.09067e-09
9.46179e-11
7.52056e-10
4.36011e-11
3.80816e-10
1.05287e-11
-7.24729e-11
1.11614e-12
-7.54269e-10
-4.69439e-12
-1.07624e-09
-3.53303e-11
-3.75158e-10
-8.0397e-11
2.12173e-10
-1.49905e-10
6.43934e-10
-2.73668e-10
1.00356e-09
-3.83792e-10
1.29252e-09
-4.13424e-10
1.34565e-09
-3.97593e-10
1.14815e-09
-3.87434e-10
9.22179e-10
-3.88517e-10
7.50082e-10
-3.88528e-10
5.97443e-10
-3.86356e-10
4.46897e-10
-3.82945e-10
3.07012e-10
-3.77359e-10
1.77859e-10
-3.68914e-10
5.72195e-11
-3.5685e-10
-5.76165e-11
-3.40373e-10
-1.70425e-10
-3.18648e-10
-2.8499e-10
-2.90644e-10
-4.04857e-10
-2.55115e-10
-5.34155e-10
-2.11105e-10
-6.79966e-10
-1.58814e-10
-8.52946e-10
-9.97986e-11
-1.06947e-09
-3.93275e-11
-1.417e-09
-2.26568e-09
3.71622e-11
-2.32952e-09
9.34636e-11
-1.48238e-09
1.47201e-10
-1.10557e-09
1.93432e-10
-8.59601e-10
2.31526e-10
-6.66016e-10
2.6194e-10
-5.09895e-10
2.8587e-10
-3.79454e-10
3.04615e-10
-2.65355e-10
3.19155e-10
-1.61206e-10
3.3023e-10
-6.18495e-11
3.38517e-10
3.74934e-11
3.44722e-10
1.41163e-10
3.4949e-10
2.52651e-10
3.53634e-10
3.74299e-10
3.57615e-10
5.08652e-10
3.59858e-10
6.52093e-10
3.66084e-10
8.01922e-10
3.86886e-10
9.93047e-10
3.98765e-10
1.23401e-09
3.45513e-10
1.36705e-09
2.25962e-10
1.21022e-09
1.20052e-10
8.57966e-10
5.57386e-11
4.45129e-10
1.7639e-11
-3.43733e-11
2.30654e-12
-7.38936e-10
-1.09606e-11
-1.06298e-09
-4.51087e-11
-3.4101e-10
-9.89067e-11
2.65971e-10
-1.83699e-10
7.28726e-10
-3.05347e-10
1.12521e-09
-3.92594e-10
1.37977e-09
-4.0424e-10
1.35729e-09
-3.87015e-10
1.13092e-09
-3.80974e-10
9.16139e-10
-3.82281e-10
7.51389e-10
-3.81106e-10
5.96268e-10
-3.78368e-10
4.44159e-10
-3.74458e-10
3.03102e-10
-3.68475e-10
1.71876e-10
-3.59789e-10
4.85332e-11
-3.47634e-10
-6.97712e-11
-3.31244e-10
-1.86816e-10
-3.09799e-10
-3.06435e-10
-2.82296e-10
-4.3236e-10
-2.47544e-10
-5.68908e-10
-2.0463e-10
-7.2288e-10
-1.53657e-10
-9.03919e-10
-9.60903e-11
-1.12704e-09
-3.76017e-11
-1.47549e-09
-2.30328e-09
3.54549e-11
-2.36498e-09
8.95485e-11
-1.53648e-09
1.41504e-10
-1.15752e-09
1.86202e-10
-9.04298e-10
2.23096e-10
-7.0291e-10
2.52712e-10
-5.39511e-10
2.76177e-10
-4.02919e-10
2.94697e-10
-2.83874e-10
3.09191e-10
-1.75699e-10
3.20354e-10
-7.30127e-11
3.28825e-10
2.9022e-11
3.35285e-10
1.34703e-10
3.40387e-10
2.47549e-10
3.4483e-10
3.69856e-10
3.4937e-10
5.04113e-10
3.52514e-10
6.48949e-10
3.56706e-10
7.97729e-10
3.73909e-10
9.75845e-10
3.93073e-10
1.21484e-09
3.61986e-10
1.39813e-09
2.59494e-10
1.31271e-09
1.47731e-10
9.69729e-10
7.04151e-11
5.22446e-10
2.57334e-11
1.03085e-11
3.64462e-12
-7.16847e-10
-1.76505e-11
-1.04168e-09
-5.6484e-11
-3.02177e-10
-1.2011e-10
3.29597e-10
-2.16635e-10
8.25251e-10
-3.30623e-10
1.23919e-09
-3.95367e-10
1.44451e-09
-3.93889e-10
1.35581e-09
-3.77897e-10
1.11493e-09
-3.74935e-10
9.13177e-10
-3.75607e-10
7.5206e-10
-3.73432e-10
5.94094e-10
-3.70228e-10
4.40955e-10
-3.65861e-10
2.98735e-10
-3.59543e-10
1.65558e-10
-3.50652e-10
3.96421e-11
-3.38432e-10
-8.19909e-11
-3.22144e-10
-2.03104e-10
-3.00991e-10
-3.27588e-10
-2.7401e-10
-4.59341e-10
-2.40071e-10
-6.02847e-10
-1.98304e-10
-7.64646e-10
-1.48724e-10
-9.53499e-10
-9.27036e-11
-1.18306e-09
-3.6134e-11
-1.53206e-09
-2.33941e-09
3.39549e-11
-2.39893e-09
8.59208e-11
-1.58844e-09
1.36053e-10
-1.20766e-09
1.79193e-10
-9.47438e-10
2.14885e-10
-7.38602e-10
2.43707e-10
-5.68333e-10
2.66718e-10
-4.25929e-10
2.85024e-10
-3.02181e-10
2.99475e-10
-1.90151e-10
3.10717e-10
-8.42543e-11
3.19349e-10
2.039e-11
3.26019e-10
1.28032e-10
3.31391e-10
2.42177e-10
3.36085e-10
3.65162e-10
3.40976e-10
4.99222e-10
3.45064e-10
6.44861e-10
3.48412e-10
7.94381e-10
3.61849e-10
9.62409e-10
3.84326e-10
1.19237e-09
3.71619e-10
1.41084e-09
2.884e-10
1.39593e-09
1.76568e-10
1.08156e-09
8.80631e-11
6.10951e-10
3.52437e-11
6.31278e-11
5.18931e-12
-6.86793e-10
-2.48767e-11
-1.01161e-09
-7.0029e-11
-2.57024e-10
-1.43642e-10
4.03209e-10
-2.47337e-10
9.28947e-10
-3.49448e-10
1.3413e-09
-3.93531e-10
1.48859e-09
-3.83371e-10
1.34565e-09
-3.69986e-10
1.10154e-09
-3.68906e-10
9.12097e-10
-3.68526e-10
7.51681e-10
-3.65583e-10
5.91151e-10
-3.61979e-10
4.37351e-10
-3.57213e-10
2.93968e-10
-3.50615e-10
1.5896e-10
-3.41552e-10
3.05798e-11
-3.2929e-10
-9.42534e-11
-3.13114e-10
-2.1928e-10
-2.92261e-10
-3.48441e-10
-2.65811e-10
-4.8579e-10
-2.32705e-10
-6.35954e-10
-1.92117e-10
-8.05234e-10
-1.43984e-10
-1.00163e-09
-8.95788e-11
-1.23747e-09
-3.48663e-11
-1.58677e-09
-2.37428e-09
3.26185e-11
-2.43155e-09
8.25357e-11
-1.63836e-09
1.30827e-10
-1.25595e-09
1.72405e-10
-9.89016e-10
2.06905e-10
-7.73103e-10
2.34949e-10
-5.96376e-10
2.57521e-10
-4.48502e-10
2.75628e-10
-3.20288e-10
2.90043e-10
-2.04565e-10
3.01356e-10
-9.55673e-11
3.10127e-10
1.16185e-11
3.16971e-10
1.21188e-10
3.2255e-10
2.36598e-10
3.27448e-10
3.60263e-10
3.32535e-10
4.94136e-10
3.37414e-10
6.39982e-10
3.40762e-10
7.91033e-10
3.50925e-10
9.52246e-10
3.73824e-10
1.16947e-09
3.75407e-10
1.40926e-09
3.11932e-10
1.4594e-09
2.05168e-10
1.18832e-09
1.08329e-10
7.0779e-10
4.63262e-11
1.25131e-10
6.98538e-12
-6.47452e-10
-3.26943e-11
-9.71934e-10
-8.5739e-11
-2.0398e-10
-1.68539e-10
4.86009e-10
-2.74647e-10
1.03506e-09
-3.62183e-10
1.42884e-09
-3.8838e-10
1.51479e-09
-3.73268e-10
1.33054e-09
-3.62921e-10
1.0912e-09
-3.62648e-10
9.11824e-10
-3.61122e-10
7.50156e-10
-3.57621e-10
5.8765e-10
-3.53667e-10
4.33396e-10
-3.48563e-10
2.88865e-10
-3.41734e-10
1.52131e-10
-3.32532e-10
2.13772e-11
-3.20246e-10
-1.06539e-10
-3.04192e-10
-2.35334e-10
-2.8364e-10
-3.68993e-10
-2.57725e-10
-5.11705e-10
-2.25459e-10
-6.68219e-10
-1.86065e-10
-8.44628e-10
-1.39412e-10
-1.04829e-09
-8.66679e-11
-1.29021e-09
-3.37535e-11
-1.63968e-09
-2.40803e-09
3.14118e-11
-2.46296e-09
7.93575e-11
-1.6863e-09
1.2581e-10
-1.3024e-09
1.65837e-10
-1.02904e-09
1.99169e-10
-8.06435e-10
2.26457e-10
-6.23664e-10
2.48612e-10
-4.70656e-10
2.66535e-10
-3.38211e-10
2.80918e-10
-2.18948e-10
2.92296e-10
-1.06946e-10
3.01189e-10
2.72609e-12
3.08175e-10
1.14203e-10
3.13905e-10
2.30868e-10
3.18959e-10
3.55208e-10
3.24134e-10
4.88961e-10
3.29573e-10
6.34543e-10
3.3341e-10
7.87195e-10
3.41097e-10
9.44559e-10
3.62544e-10
1.14802e-09
3.74437e-10
1.39737e-09
3.29808e-10
1.50403e-09
2.32135e-10
1.286e-09
1.30355e-10
8.0957e-10
5.8815e-11
1.96671e-10
9.04372e-12
-5.97681e-10
-4.10503e-11
-9.2184e-10
-1.03143e-10
-1.41887e-10
-1.93556e-10
5.76422e-10
-2.97741e-10
1.13924e-09
-3.69457e-10
1.50056e-09
-3.81016e-10
1.52635e-09
-3.63845e-10
1.31337e-09
-3.5634e-10
1.08369e-09
-3.56058e-10
9.11542e-10
-3.53488e-10
7.47585e-10
-3.49596e-10
5.83757e-10
-3.45335e-10
4.29136e-10
-3.39958e-10
2.83487e-10
-3.3294e-10
1.45114e-10
-3.23625e-10
1.20623e-11
-3.11333e-10
-1.18832e-10
-2.95407e-10
-2.51259e-10
-2.75157e-10
-3.89244e-10
-2.49774e-10
-5.37088e-10
-2.18347e-10
-6.99646e-10
-1.80147e-10
-8.82828e-10
-1.34991e-10
-1.09344e-09
-8.39331e-11
-1.34127e-09
-3.2761e-11
-1.69085e-09
-2.44079e-09
3.03087e-11
-2.49327e-09
7.63579e-11
-1.73235e-09
1.2099e-10
-1.34703e-09
1.5949e-10
-1.06754e-09
1.91688e-10
-8.38632e-10
2.18248e-10
-6.50225e-10
2.40006e-10
-4.92414e-10
2.57759e-10
-3.55964e-10
2.72116e-10
-2.33304e-10
2.83555e-10
-1.18386e-10
2.92553e-10
-6.27169e-12
2.99654e-10
1.07101e-10
3.05489e-10
2.25034e-10
3.10649e-10
3.50049e-10
3.15842e-10
4.83767e-10
3.21602e-10
6.28783e-10
3.26125e-10
7.82672e-10
3.32183e-10
9.38501e-10
3.51157e-10
1.12905e-09
3.69783e-10
1.37874e-09
3.42126e-10
1.53169e-09
2.56277e-10
1.37185e-09
1.52981e-10
9.12866e-10
7.2319e-11
2.77333e-10
1.13416e-11
-5.36703e-10
-4.97778e-11
-8.60721e-10
-1.21484e-10
-7.01808e-11
-2.17435e-10
6.72373e-10
-3.16157e-10
1.23796e-09
-3.72045e-10
1.55644e-09
-3.72315e-10
1.52662e-09
-3.55145e-10
1.2962e-09
-3.49946e-10
1.07849e-09
-3.49127e-10
9.10723e-10
-3.45708e-10
7.44166e-10
-3.41545e-10
5.79594e-10
-3.37026e-10
4.24616e-10
-3.31432e-10
2.77894e-10
-3.24262e-10
1.37943e-10
-3.1486e-10
2.66058e-12