/*--------------------------------*- C++ -*----------------------------------*\
| =========                 |                                                 |
| \\      /  F ield         | OpenFOAM: The Open Source CFD Toolbox           |
|  \\    /   O peration     | Version:  v1612+                                |
|   \\  /    A nd           | Web:      www.OpenFOAM.com                      |
|    \\/     M anipulation  |                                                 |
\*---------------------------------------------------------------------------*/
FoamFile
{
    version     2.0;
    format      ascii;
    class       surfaceScalarField;
    location    "290.1";
    object      q;
}
// * * * * * * * * * * * * * * * * * * * * * * * * * * * * * * * * * * * * * //

dimensions      [1 0 -3 0 0 0 0];

internalField   nonuniform List<scalar> 
79150
(
4544.69
4451.53
4637.02
4641.29
4615.68
4621.29
4602.93
4600.48
4606.49
4604.08
4608.77
4607.61
4609.18
4608.34
4609.4
4608.67
4609.32
4608.87
4608.46
4608.5
4606.54
4607.27
4603.49
4605.02
4599.78
4601.77
4596.52
4598.24
4594.7
4595.65
4594.25
4594.52
4594.41
4594.46
4594.44
4594.6
4594.45
4594.46
4595.1
4594.64
4596.64
4595.73
4598.55
4597.47
4598.65
4598.99
4594.51
4597.36
4589.53
4591.72
4590.82
4588.9
4596.51
4593.88
4598.94
4598.63
4597.51
4598.3
4595.54
4596.4
4594.47
4594.83
4594.36
4594.35
4594.43
4594.55
4594.3
4594.53
4594.53
4594.48
4596.08
4595.33
4599.29
4597.73
4603.3
4601.43
4606.75
4605.06
4608.91
4607.62
4609.77
4608.93
4609.62
4609.18
4609.02
4608.68
4608.18
4607.97
4605.53
4606.85
4601.7
4603.04
4614.3
4599.26
4636.03
4620.02
4545.04
4640.72
4452.68
4548.14
4482.68
4625.54
4621.53
4606.08
4605.95
4601.63
4599.36
4605.21
4603.37
4607.19
4605.99
4607.83
4606.92
4608.13
4607.37
4608.04
4607.49
4607.3
4607.04
4605.75
4605.87
4603.3
4603.94
4600.24
4601.33
4597.37
4598.57
4595.48
4596.42
4594.74
4595.17
4594.65
4594.81
4594.62
4594.77
4594.65
4594.64
4595.27
4594.83
4596.56
4595.86
4597.9
4597.07
4597.69
4597.94
4594.57
4596.5
4591.09
4592.6
4591.96
4590.68
4596
4594.01
4597.99
4597.48
4597.19
4597.5
4595.68
4596.38
4594.71
4595.06
4594.54
4594.55
4594.65
4594.7
4594.72
4594.83
4595.27
4595.06
4596.98
4596.14
4599.88
4598.21
4603.19
4601.09
4605.93
4603.95
4607.64
4606.09
4608.34
4607.32
4608.23
4607.68
4607.63
4607.32
4606.64
4606.55
4604.36
4605.31
4600.6
4602.45
4604.96
4598.32
4624.69
4604.95
4548.36
4621.01
4483.5
4556.08
4516.07
4601.89
4600.53
4599.22
4597.24
4601.11
4598.66
4604.16
4602.35
4605.72
4604.44
4606.46
4605.54
4606.73
4606.14
4606.49
4606.23
4605.6
4605.68
4604.05
4604.41
4601.97
4602.51
4599.66
4600.25
4597.62
4598.16
4596.12
4596.74
4595.25
4595.75
4594.92
4595.19
4594.78
4594.95
4594.81
4594.77
4595.41
4594.99
4596.37
4596.01
4597.11
4596.59
4596.74
4597.01
4594.53
4595.83
4592.19
4593.27
4592.73
4591.94
4595.5
4594.1
4596.99
4596.58
4596.69
4596.66
4595.76
4596.35
4594.9
4595.28
4594.7
4594.7
4594.88
4594.85
4595.17
4595.15
4595.93
4595.62
4597.37
4596.59
4599.42
4597.94
4601.85
4600.03
4604.1
4602.44
4605.76
4604.5
4606.65
4605.85
4606.76
4606.34
4606.24
4606.06
4605.23
4605.19
4603.4
4603.85
4600.17
4601.51
4598.29
4597.74
4601.22
4596.43
4556.16
4600.11
4516.57
4560.53
4531.57
4595.87
4593.57
4596.68
4592.55
4599.9
4596.8
4602.64
4600.8
4604.26
4603.02
4605.21
4604.29
4605.63
4605.06
4605.42
4605.25
4604.49
4604.78
4602.87
4603.57
4600.79
4601.67
4598.76
4599.41
4597.28
4597.48
4596.37
4596.51
4595.69
4596.04
4595.22
4595.56
4594.94
4595.16
4594.95
4594.9
4595.59
4595.15
4596.24
4596.22
4596.49
4596.17
4596.1
4596.39
4594.57
4595.43
4593.02
4593.8
4593.31
4592.82
4595.18
4594.22
4596.25
4595.99
4596.31
4596.02
4595.88
4596.36
4595.09
4595.54
4594.85
4594.83
4595.12
4595.01
4595.6
4595.49
4596.28
4595.99
4597.16
4596.48
4598.55
4597.29
4600.62
4599.15
4602.84
4601.54
4604.59
4603.61
4605.53
4604.9
4605.63
4605.33
4605
4604.98
4603.81
4603.96
4601.96
4602.47
4599.08
4600.07
4595.87
4596.01
4595.31
4591.84
4560.54
4593.22
4531.89
4564.62
4542.38
4590.24
4589.35
4592.66
4589.22
4597.69
4594.92
4601.18
4599.5
4603.06
4601.82
4604.14
4603.18
4604.69
4604.06
4604.61
4604.36
4603.85
4604.04
4602.37
4603.04
4600.29
4601.37
4598.14
4599.18
4596.7
4597.1
4596.17
4596.05
4595.91
4595.93
4595.51
4595.82
4595.12
4595.42
4595.1
4595.04
4595.78
4595.31
4596.16
4596.43
4596.07
4595.86
4595.71
4596.01
4594.66
4595.21
4593.6
4594.21
4593.72
4593.41
4595.02
4594.34
4595.76
4595.65
4596.06
4595.59
4596.02
4596.39
4595.28
4595.79
4595
4594.95
4595.38
4595.22
4595.88
4595.79
4596.19
4596
4596.61
4596.05
4597.88
4596.85
4600.07
4598.89
4602.31
4601.25
4603.92
4603.08
4604.7
4604.13
4604.67
4604.4
4603.94
4603.96
4602.62
4602.87
4600.57
4601.3
4597
4598.85
4591.98
4594.25
4589.74
4588.62
4564.57
4589.03
4542.57
4567.12
4549.31
4588.34
4587.27
4591.48
4588.05
4596.73
4593.71
4600.14
4598.3
4601.95
4600.65
4603.09
4602.1
4603.73
4603.06
4603.79
4603.47
4603.23
4603.27
4602.05
4602.51
4600.26
4601.18
4598.14
4599.31
4596.45
4597.25
4595.81
4595.85
4595.84
4595.6
4595.73
4595.84
4595.33
4595.69
4595.25
4595.21
4595.95
4595.44
4596.13
4596.59
4595.8
4595.64
4595.5
4595.78
4594.76
4595.1
4594.02
4594.53
4594.02
4593.81
4594.96
4594.45
4595.48
4595.47
4595.92
4595.31
4596.16
4596.44
4595.46
4595.98
4595.18
4595.09
4595.63
4595.5
4595.91
4595.92
4595.86
4595.71
4596.29
4595.76
4597.85
4596.94
4600.07
4599.06
4602.02
4601.09
4603.29
4602.54
4603.84
4603.33
4603.68
4603.46
4602.89
4602.93
4601.55
4601.81
4599.58
4600.18
4596.1
4597.72
4590.89
4593.12
4587.9
4587.52
4567.04
4586.97
4549.42
4569.47
4555.22
4586.98
4585.75
4590.27
4587.37
4595.27
4592.51
4598.81
4597.06
4600.8
4599.56
4602.07
4601.11
4602.79
4602.13
4602.95
4602.59
4602.55
4602.5
4601.63
4601.9
4600.23
4600.86
4598.42
4599.4
4596.65
4597.62
4595.65
4596.06
4595.6
4595.38
4595.8
4595.62
4595.57
4595.87
4595.41
4595.49
4596.08
4595.49
4596.11
4596.68
4595.62
4595.5
4595.38
4595.65
4594.87
4595.06
4594.32
4594.77
4594.23
4594.07
4594.96
4594.55
4595.3
4595.39
4595.83
4595.12
4596.25
4596.47
4595.6
4596.04
4595.4
4595.3
4595.79
4595.76
4595.73
4595.81
4595.62
4595.42
4596.41
4595.85
4598.15
4597.32
4600.09
4599.21
4601.61
4600.8
4602.58
4601.9
4602.96
4602.52
4602.72
4602.56
4601.85
4601.98
4600.44
4600.82
4598.32
4599.14
4594.73
4596.55
4589.75
4591.99
4586.59
4586.9
4569.36
4585.48
4555.26
4571.51
4560.29
4586.14
4584.66
4589.61
4587.07
4594.3
4591.69
4597.82
4596.07
4599.87
4598.63
4601.17
4600.21
4601.93
4601.26
4602.14
4601.77
4601.84
4601.75
4601.12
4601.27
4600.02
4600.42
4598.6
4599.29
4597.03
4597.89
4595.79
4596.45
4595.41
4595.44
4595.69
4595.35
4595.78
4595.85
4595.57
4595.8
4596.09
4595.47
4596.07
4596.65
4595.52
4595.42
4595.33
4595.57
4594.97
4595.06
4594.53
4594.97
4594.39
4594.25
4594.98
4594.64
4595.2
4595.35
4595.76
4595
4596.26
4596.49
4595.73
4595.92
4595.65
4595.66
4595.78
4595.86
4595.5
4595.55
4595.65
4595.34
4596.77
4596.2
4598.38
4597.65
4599.92
4599.15
4601.09
4600.36
4601.84
4601.25
4602.12
4601.73
4601.83
4601.71
4600.95
4601.1
4599.52
4599.93
4597.37
4598.23
4593.81
4595.62
4589.14
4591.23
4585.78
4586.64
4571.38
4584.4
4560.28
4573.45
4564.74
4585.58
4583.95
4589.14
4586.93
4593.46
4591.08
4596.88
4595.2
4598.97
4597.76
4600.3
4599.38
4601.1
4600.45
4601.38
4601
4601.17
4601.06
4600.57
4600.67
4599.68
4599.95
4598.58
4599.03
4597.31
4597.96
4596.1
4596.78
4595.39
4595.72
4595.51
4595.21
4595.87
4595.67
4595.69
4595.97
4596.03
4595.49
4596
4596.5
4595.47
4595.4
4595.31
4595.53
4595.06
4595.08
4594.69
4595.11
4594.5
4594.37
4595.01
4594.72
4595.15
4595.34
4595.73
4594.96
4596.15
4596.49
4595.85
4595.65
4595.87
4596.06
4595.63
4595.78
4595.39
4595.31
4595.89
4595.52
4597.08
4596.55
4598.42
4597.78
4599.6
4598.93
4600.52
4599.89
4601.14
4600.63
4601.32
4601.01
4600.98
4600.92
4600.08
4600.28
4598.64
4599.11
4596.48
4597.4
4593.03
4594.79
4588.72
4590.66
4585.25
4586.54
4573.3
4583.71
4564.67
4575.25
4568.54
4585.3
4583.63
4588.86
4586.92
4592.82
4590.66
4596.09
4594.49
4598.17
4597
4599.52
4598.63
4600.35
4599.71
4600.68
4600.3
4600.55
4600.42
4600.05
4600.12
4599.3
4599.51
4598.42
4598.73
4597.43
4597.88
4596.4
4596.96
4595.54
4596.02
4595.37
4595.26
4595.77
4595.45
4595.77
4595.92
4595.97
4595.68
4595.9
4596.18
4595.46
4595.45
4595.31
4595.52
4595.14
4595.12
4594.8
4595.23
4594.59
4594.44
4595.06
4594.82
4595.15
4595.35
4595.72
4594.99
4595.98
4596.42
4595.86
4595.38
4595.97
4596.25
4595.46
4595.59
4595.44
4595.22
4596.17
4595.79
4597.24
4596.77
4598.29
4597.74
4599.22
4598.63
4599.99
4599.43
4600.5
4600.06
4600.61
4600.36
4600.22
4600.2
4599.31
4599.54
4597.86
4598.37
4595.71
4596.67
4592.43
4594.11
4588.48
4590.28
4584.99
4586.56
4575.09
4583.39
4568.45
4576.93
4571.79
4585.25
4583.62
4588.71
4587
4592.32
4590.38
4595.4
4593.9
4597.46
4596.34
4598.81
4597.95
4599.66
4599.04
4600.04
4599.66
4599.99
4599.84
4599.58
4599.62
4598.94
4599.12
4598.19
4598.43
4597.41
4597.72
4596.59
4597.01
4595.75
4596.24
4595.34
4595.44
4595.59
4595.29
4595.83
4595.72
4595.9
4595.98
4595.74
4595.71
4595.5
4595.59
4595.33
4595.51
4595.21
4595.17
4594.87
4595.31
4594.67
4594.49
4595.11
4594.95
4595.19
4595.37
4595.69
4595.12
4595.82
4596.16
4595.78
4595.32
4595.87
4596.14
4595.35
4595.38
4595.58
4595.28
4596.39
4596.03
4597.26
4596.85
4598.08
4597.61
4598.85
4598.33
4599.5
4599.02
4599.92
4599.55
4599.95
4599.76
4599.52
4599.55
4598.6
4598.86
4597.17
4597.7
4595.06
4596.03
4591.96
4593.55
4588.36
4590.03
4584.96
4586.67
4576.76
4583.39
4571.66
4578.48
4574.55
4585.37
4583.83
4588.67
4587.17
4591.95
4590.22
4594.83
4593.42
4596.83
4595.77
4598.18
4597.35
4599.04
4598.43
4599.46
4599.08
4599.47
4599.3
4599.15
4599.16
4598.6
4598.75
4597.95
4598.16
4597.31
4597.53
4596.67
4596.97
4595.94
4596.37
4595.39
4595.64
4595.42
4595.25
4595.87
4595.47
4595.8
4596.18
4595.56
4595.26
4595.59
4595.73
4595.36
4595.53
4595.27
4595.24
4594.92
4595.36
4594.77
4594.51
4595.21
4595.14
4595.3
4595.41
4595.59
4595.36
4595.66
4595.68
4595.69
4595.49
4595.66
4595.85
4595.32
4595.26
4595.74
4595.43
4596.5
4596.19
4597.2
4596.85
4597.85
4597.43
4598.5
4598.05
4599.07
4598.65
4599.39
4599.08
4599.35
4599.21
4598.89
4598.95
4597.96
4598.25
4596.56
4597.11
4594.52
4595.48
4591.62
4593.1
4588.35
4589.89
4585.1
4586.86
4578.3
4583.61
4574.41
4579.91
4576.92
4585.63
4584.2
4588.71
4587.39
4591.69
4590.14
4594.36
4593.05
4596.29
4595.28
4597.6
4596.82
4598.47
4597.88
4598.92
4598.54
4598.99
4598.81
4598.76
4598.74
4598.3
4598.41
4597.73
4597.91
4597.18
4597.35
4596.67
4596.88
4596.07
4596.41
4595.5
4595.81
4595.31
4595.32
4595.79
4595.27
4595.65
4596.13
4595.43
4595.05
4595.67
4595.75
4595.41
4595.58
4595.33
4595.32
4594.95
4595.41
4594.89
4594.54
4595.35
4595.36
4595.48
4595.5
4595.45
4595.66
4595.51
4595.17
4595.65
4595.73
4595.45
4595.52
4595.37
4595.24
4595.88
4595.59
4596.53
4596.26
4597.08
4596.78
4597.63
4597.25
4598.19
4597.79
4598.66
4598.31
4598.9
4598.65
4598.8
4598.7
4598.31
4598.41
4597.39
4597.7
4596.02
4596.58
4594.06
4595
4591.38
4592.75
4588.41
4589.84
4585.37
4587.1
4579.72
4583.99
4576.76
4581.21
4578.95
4585.96
4584.66
4588.82
4587.65
4591.51
4590.14
4593.97
4592.77
4595.81
4594.87
4597.09
4596.35
4597.95
4597.39
4598.43
4598.05
4598.56
4598.36
4598.39
4598.35
4598.02
4598.1
4597.53
4597.68
4597.05
4597.19
4596.62
4596.77
4596.15
4596.41
4595.63
4595.92
4595.28
4595.44
4595.61
4595.16
4595.52
4595.87
4595.36
4595.1
4595.66
4595.62
4595.49
4595.64
4595.4
4595.41
4594.99
4595.44
4595.01
4594.57
4595.51
4595.57
4595.67
4595.59
4595.37
4595.83
4595.39
4594.88
4595.6
4595.83
4595.31
4595.26
4595.47
4595.32
4595.97
4595.72
4596.51
4596.28
4596.95
4596.68
4597.42
4597.08
4597.91
4597.56
4598.29
4598
4598.45
4598.25
4598.31
4598.25
4597.79
4597.91
4596.89
4597.21
4595.56
4596.12
4593.69
4594.6
4591.21
4592.48
4588.53
4589.85
4585.72
4587.38
4581.02
4584.45
4578.78
4582.4
4580.7
4586.35
4585.18
4588.97
4587.94
4591.4
4590.18
4593.66
4592.56
4595.4
4594.52
4596.64
4595.94
4597.49
4596.95
4597.98
4597.61
4598.15
4597.94
4598.05
4597.99
4597.76
4597.8
4597.34
4597.46
4596.91
4597.04
4596.55
4596.65
4596.18
4596.37
4595.73
4595.98
4595.32
4595.56
4595.42
4595.15
4595.45
4595.57
4595.35
4595.25
4595.6
4595.46
4595.57
4595.69
4595.46
4595.48
4595.03
4595.45
4595.13
4594.63
4595.64
4595.7
4595.75
4595.62
4595.34
4595.85
4595.32
4594.84
4595.49
4595.74
4595.26
4595.1
4595.57
4595.44
4596.03
4595.8
4596.46
4596.27
4596.81
4596.57
4597.22
4596.92
4597.65
4597.35
4597.95
4597.7
4598.04
4597.88
4597.85
4597.83
4597.33
4597.47
4596.44
4596.77
4595.16
4595.71
4593.39
4594.27
4591.12
4592.29
4588.7
4589.91
4586.11
4587.68
4582.21
4584.98
4580.52
4583.48
4582.21
4586.77
4585.73
4589.15
4588.24
4591.34
4590.26
4593.41
4592.4
4595.05
4594.23
4596.24
4595.58
4597.07
4596.55
4597.57
4597.21
4597.78
4597.57
4597.74
4597.65
4597.51
4597.53
4597.16
4597.26
4596.78
4596.89
4596.47
4596.54
4596.17
4596.3
4595.81
4596.01
4595.39
4595.66
4595.29
4595.22
4595.37
4595.3
4595.36
4595.33
4595.55
4595.39
4595.6
4595.7
4595.48
4595.49
4595.06
4595.43
4595.21
4594.69
4595.67
4595.74
4595.72
4595.56
4595.35
4595.82
4595.26
4594.91
4595.34
4595.52
4595.28
4595.04
4595.67
4595.56
4596.04
4595.85
4596.38
4596.23
4596.68
4596.45
4597.04
4596.78
4597.4
4597.14
4597.63
4597.42
4597.66
4597.54
4597.44
4597.44
4596.91
4597.06
4596.04
4596.37
4594.82
4595.36
4593.16
4593.99
4591.08
4592.15
4588.89
4590
4586.54
4587.99
4583.29
4585.53
4582.03
4584.46
4583.52
4587.2
4586.28
4589.35
4588.55
4591.33
4590.37
4593.22
4592.3
4594.75
4593.99
4595.89
4595.26
4596.69
4596.2
4597.2
4596.85
4597.44
4597.22
4597.44
4597.34
4597.27
4597.27
4596.99
4597.06
4596.66
4596.76
4596.38
4596.44
4596.14
4596.23
4595.86
4596.01
4595.48
4595.72
4595.23
4595.32
4595.26
4595.12
4595.36
4595.29
4595.54
4595.42
4595.59
4595.68
4595.44
4595.44
4595.06
4595.38
4595.23
4594.74
4595.63
4595.7
4595.66
4595.48
4595.38
4595.79
4595.18
4594.99
4595.22
4595.28
4595.32
4595.06
4595.74
4595.64
4596.03
4595.88
4596.3
4596.16
4596.55
4596.34
4596.87
4596.64
4597.16
4596.94
4597.33
4597.16
4597.32
4597.23
4597.07
4597.09
4596.53
4596.7
4595.69
4596.02
4594.53
4595.06
4592.98
4593.76
4591.07
4592.05
4589.1
4590.13
4586.98
4588.31
4584.27
4586.08
4583.33
4585.34
4584.66
4587.63
4586.82
4589.57
4588.85
4591.35
4590.5
4593.07
4592.24
4594.5
4593.8
4595.58
4595
4596.36
4595.89
4596.87
4596.52
4597.12
4596.9
4597.17
4597.06
4597.05
4597.03
4596.82
4596.87
4596.54
4596.62
4596.29
4596.35
4596.1
4596.15
4595.88
4595.99
4595.56
4595.76
4595.21
4595.41
4595.15
4595.02
4595.34
4595.17
4595.55
4595.48
4595.53
4595.64
4595.38
4595.38
4595.06
4595.32
4595.21
4594.81
4595.55
4595.62
4595.61
4595.41
4595.4
4595.78
4595.09
4595.02
4595.13
4595.07
4595.38
4595.13
4595.78
4595.69
4596.01
4595.88
4596.21
4596.08
4596.43
4596.24
4596.71
4596.51
4596.94
4596.76
4597.06
4596.92
4597
4596.94
4596.73
4596.78
4596.19
4596.38
4595.39
4595.72
4594.28
4594.79
4592.84
4593.57
4591.11
4592
4589.33
4590.26
4587.42
4588.62
4585.15
4586.63
4584.47
4586.14
4585.65
4588.05
4587.35
4589.79
4589.16
4591.4
4590.65
4592.97
4592.21
4594.29
4593.64
4595.31
4594.77
4596.06
4595.62
4596.56
4596.23
4596.84
4596.62
4596.91
4596.79
4596.84
4596.8
4596.66
4596.69
4596.43
4596.49
4596.2
4596.25
4596.04
4596.07
4595.87
4595.95
4595.62
4595.78
4595.22
4595.49
4595.04
4594.98
4595.3
4595.02
4595.56
4595.54
4595.48
4595.6
4595.32
4595.34
4595.08
4595.28
4595.21
4594.92
4595.48
4595.53
4595.58
4595.38
4595.4
4595.79
4595
4595
4595.07
4594.92
4595.44
4595.2
4595.79
4595.71
4595.96
4595.87
4596.12
4596
4596.32
4596.15
4596.55
4596.38
4596.73
4596.58
4596.8
4596.69
4596.71
4596.68
4596.42
4596.49
4595.9
4596.08
4595.12
4595.44
4594.08
4594.57
4592.74
4593.43
4591.16
4591.98
4589.56
4590.42
4587.84
4588.94
4585.95
4587.16
4585.46
4586.86
4586.52
4588.46
4587.85
4590.02
4589.46
4591.46
4590.8
4592.89
4592.21
4594.12
4593.52
4595.07
4594.57
4595.79
4595.38
4596.29
4595.97
4596.57
4596.36
4596.68
4596.55
4596.64
4596.59
4596.51
4596.51
4596.32
4596.36
4596.12
4596.16
4595.98
4595.99
4595.86
4595.9
4595.65
4595.78
4595.25
4595.53
4594.96
4595
4595.25
4594.87
4595.57
4595.56
4595.45
4595.58
4595.29
4595.33
4595.12
4595.26
4595.24
4595.05
4595.44
4595.49
4595.59
4595.38
4595.39
4595.8
4594.92
4594.94
4595.05
4594.84
4595.48
4595.27
4595.78
4595.71
4595.91
4595.83
4596.03
4595.92
4596.21
4596.06
4596.4
4596.25
4596.53
4596.4
4596.56
4596.48
4596.45
4596.43
4596.15
4596.23
4595.63
4595.82
4594.89
4595.21
4593.91
4594.38
4592.67
4593.31
4591.24
4591.99
4589.79
4590.58
4588.26
4589.24
4586.68
4587.67
4586.33
4587.51
4587.28
4588.85
4588.32
4590.24
4589.75
4591.55
4590.95
4592.84
4592.23
4593.97
4593.43
4594.87
4594.4
4595.55
4595.16
4596.04
4595.74
4596.33
4596.12
4596.46
4596.33
4596.46
4596.39
4596.36
4596.35
4596.21
4596.24
4596.04
4596.08
4595.91
4595.92
4595.82
4595.84
4595.66
4595.76
4595.28
4595.55
4594.91
4595.04
4595.18
4594.76
4595.57
4595.53
4595.46
4595.59
4595.3
4595.37
4595.19
4595.28
4595.3
4595.18
4595.44
4595.51
4595.6
4595.42
4595.36
4595.8
4594.86
4594.86
4595.05
4594.8
4595.5
4595.32
4595.76
4595.7
4595.84
4595.78
4595.95
4595.84
4596.1
4595.97
4596.26
4596.13
4596.35
4596.24
4596.35
4596.28
4596.21
4596.21
4595.9
4595.99
4595.4
4595.59
4594.69
4595
4593.77
4594.21
4592.63
4593.22
4591.32
4592.01
4590.02
4590.74
4588.65
4589.53
4587.33
4588.14
4587.1
4588.09
4587.95
4589.22
4588.76
4590.46
4590.02
4591.64
4591.11
4592.81
4592.26
4593.86
4593.36
4594.69
4594.26
4595.34
4594.98
4595.81
4595.53
4596.11
4595.9
4596.26
4596.12
4596.28
4596.21
4596.22
4596.2
4596.1
4596.11
4595.96
4595.99
4595.84
4595.85
4595.78
4595.77
4595.66
4595.73
4595.31
4595.56
4594.89
4595.09
4595.11
4594.68
4595.55
4595.45
4595.5
4595.6
4595.36
4595.45
4595.27
4595.34
4595.38
4595.3
4595.49
4595.56
4595.62
4595.48
4595.3
4595.76
4594.8
4594.77
4595.06
4594.8
4595.51
4595.34
4595.72
4595.68
4595.78
4595.71
4595.87
4595.77
4596
4595.88
4596.12
4596.01
4596.17
4596.09
4596.14
4596.1
4595.99
4596.01
4595.68
4595.77
4595.19
4595.38
4594.52
4594.81
4593.66
4594.08
4592.6
4593.16
4591.42
4592.05
4590.25
4590.9
4589.03
4589.81
4587.91
4588.59
4587.77
4588.62
4588.54
4589.57
4589.17
4590.67
4590.29
4591.74
4591.27
4592.8
4592.31
4593.76
4593.3
4594.54
4594.14
4595.16
4594.82
4595.61
4595.34
4595.91
4595.71
4596.07
4595.94
4596.12
4596.04
4596.09
4596.05
4596
4595.99
4595.88
4595.9
4595.78
4595.79
4595.73
4595.71
4595.64
4595.69
4595.33
4595.55
4594.88
4595.13
4595.03
4594.65
4595.51
4595.35
4595.56
4595.62
4595.44
4595.55
4595.36
4595.42
4595.48
4595.4
4595.56
4595.64
4595.63
4595.56
4595.23
4595.69
4594.77
4594.7
4595.08
4594.83
4595.51
4595.35
4595.67
4595.64
4595.71
4595.65
4595.79
4595.7
4595.9
4595.8
4595.98
4595.89
4596.01
4595.94
4595.96
4595.93
4595.79
4595.82
4595.48
4595.58
4595.01
4595.19
4594.37
4594.66
4593.57
4593.96
4592.6
4593.11
4591.53
4592.1
4590.47
4591.06
4589.38
4590.08
4588.44
4589
4588.36
4589.1
4589.07
4589.89
4589.55
4590.88
4590.54
4591.84
4591.42
4592.81
4592.36
4593.69
4593.27
4594.41
4594.04
4595
4594.68
4595.43
4595.17
4595.73
4595.53
4595.9
4595.76
4595.97
4595.88
4595.96
4595.91
4595.9
4595.88
4595.8
4595.81
4595.71
4595.72
4595.67
4595.64
4595.6
4595.63
4595.35
4595.54
4594.9
4595.17
4594.96
4594.65
4595.45
4595.22
4595.61
4595.61
4595.54
4595.67
4595.46
4595.52
4595.57
4595.48
4595.64
4595.75
4595.62
4595.63
4595.15
4595.58
4594.75
4594.64
4595.1
4594.86
4595.49
4595.36
4595.62
4595.59
4595.64
4595.58
4595.71
4595.63
4595.8
4595.72
4595.86
4595.78
4595.86
4595.81
4595.79
4595.77
4595.61
4595.65
4595.3
4595.4
4594.84
4595.03
4594.25
4594.52
4593.5
4593.87
4592.61
4593.08
4591.63
4592.16
4590.68
4591.22
4589.71
4590.34
4588.92
4589.39
4588.89
4589.52
4589.53
4590.2
4589.9
4591.08
4590.77
4591.94
4591.57
4592.82
4592.42
4593.63
4593.25
4594.3
4593.96
4594.85
4594.55
4595.27
4595.02
4595.56
4595.37
4595.74
4595.61
4595.83
4595.74
4595.84
4595.78
4595.8
4595.77
4595.73
4595.72
4595.65
4595.65
4595.61
4595.58
4595.56
4595.57
4595.35
4595.51
4594.92
4595.19
4594.91
4594.67
4595.38
4595.09
4595.66
4595.57
4595.65
4595.77
4595.54
4595.61
4595.66
4595.54
4595.73
4595.86
4595.59
4595.67
4595.07
4595.45
4594.75
4594.61
4595.12
4594.9
4595.46
4595.35
4595.55
4595.53
4595.57
4595.51
4595.64
4595.57
4595.7
4595.63
4595.73
4595.68
4595.72
4595.68
4595.63
4595.63
4595.44
4595.49
4595.14
4595.25
4594.7
4594.88
4594.14
4594.4
4593.45
4593.79
4592.63
4593.06
4591.74
4592.22
4590.88
4591.37
4590.02
4590.58
4589.35
4589.74
4589.36
4589.91
4589.94
4590.48
4590.23
4591.27
4591
4592.05
4591.71
4592.85
4592.48
4593.58
4593.24
4594.21
4593.89
4594.72
4594.45
4595.13
4594.89
4595.41
4595.23
4595.6
4595.46
4595.69
4595.6
4595.72
4595.66
4595.7
4595.67
4595.65
4595.64
4595.59
4595.59
4595.55
4595.52
4595.52
4595.51
4595.35
4595.48
4594.95
4595.21
4594.86
4594.71
4595.29
4594.97
4595.68
4595.5
4595.74
4595.85
4595.61
4595.68
4595.73
4595.57
4595.8
4595.93
4595.53
4595.68
4594.98
4595.3
4594.76
4594.59
4595.13
4594.94
4595.42
4595.33
4595.49
4595.47
4595.51
4595.45
4595.56
4595.5
4595.61
4595.55
4595.62
4595.57
4595.59
4595.56
4595.49
4595.49
4595.29
4595.35
4594.99
4595.1
4594.58
4594.75
4594.05
4594.29
4593.41
4593.73
4592.66
4593.06
4591.85
4592.29
4591.07
4591.52
4590.3
4590.81
4589.74
4590.06
4589.77
4590.26
4590.31
4590.74
4590.52
4591.44
4591.21
4592.15
4591.85
4592.87
4592.55
4593.55
4593.23
4594.13
4593.84
4594.61
4594.35
4595
4594.78
4595.28
4595.1
4595.46
4595.33
4595.57
4595.47
4595.61
4595.55
4595.61
4595.57
4595.57
4595.56
4595.52
4595.52
4595.48
4595.46
4595.47
4595.44
4595.34
4595.43
4594.97
4595.21
4594.82
4594.75
4595.18
4594.86
4595.66
4595.39
4595.79
4595.88
4595.64
4595.72
4595.77
4595.56
4595.81
4595.98
4595.44
4595.64
4594.91
4595.14
4594.77
4594.6
4595.14
4594.96
4595.38
4595.31
4595.42
4595.4
4595.44
4595.38
4595.49
4595.43
4595.52
4595.47
4595.51
4595.47
4595.46
4595.45
4595.35
4595.37
4595.16
4595.22
4594.87
4594.98
4594.47
4594.64
4593.97
4594.21
4593.38
4593.68
4592.69
4593.06
4591.96
4592.36
4591.25
4591.66
4590.57
4591.02
4590.1
4590.36
4590.15
4590.57
4590.64
4590.99
4590.8
4591.61
4591.4
4592.25
4591.98
4592.91
4592.62
4593.53
4593.24
4594.06
4593.8
4594.52
4594.28
4594.88
4594.67
4595.15
4594.98
4595.34
4595.21
4595.45
4595.36
4595.51
4595.44
4595.52
4595.47
4595.5
4595.47
4595.46
4595.45
4595.42
4595.41
4595.41
4595.38
4595.31
4595.38
4595
4595.21
4594.8
4594.8
4595.07
4594.78
4595.61
4595.26
4595.81
4595.87
4595.64
4595.73
4595.78
4595.53
4595.8
4595.99
4595.34
4595.56
4594.84
4595
4594.79
4594.62
4595.13
4594.98
4595.33
4595.28
4595.36
4595.33
4595.38
4595.32
4595.41
4595.37
4595.43
4595.39
4595.41
4595.38
4595.35
4595.34
4595.23
4595.25
4595.03
4595.1
4594.75
4594.86
4594.38
4594.54
4593.91
4594.13
4593.36
4593.64
4592.73
4593.07
4592.07
4592.43
4591.43
4591.8
4590.81
4591.22
4590.41
4590.64
4590.48
4590.86
4590.93
4591.21
4591.05
4591.77
4591.59
4592.35
4592.11
4592.95
4592.68
4593.51
4593.25
4594.01
4593.76
4594.43
4594.21
4594.78
4594.58
4595.04
4594.88
4595.23
4595.1
4595.35
4595.25
4595.41
4595.34
4595.43
4595.38
4595.43
4595.39
4595.4
4595.39
4595.36
4595.35
4595.35
4595.32
4595.28
4595.33
4595.01
4595.2
4594.78
4594.84
4594.97
4594.73
4595.52
4595.12
4595.79
4595.81
4595.62
4595.71
4595.75
4595.48
4595.75
4595.96
4595.22
4595.46
4594.78
4594.87
4594.81
4594.64
4595.13
4595
4595.28
4595.24
4595.3
4595.26
4595.32
4595.26
4595.34
4595.3
4595.34
4595.31
4595.31
4595.29
4595.24
4595.24
4595.12
4595.15
4594.92
4594.99
4594.65
4594.76
4594.29
4594.45
4593.86
4594.07
4593.35
4593.61
4592.77
4593.08
4592.17
4592.51
4591.59
4591.93
4591.04
4591.41
4590.7
4590.89
4590.78
4591.12
4591.2
4591.42
4591.27
4591.92
4591.76
4592.44
4592.23
4592.99
4592.75
4593.5
4593.27
4593.96
4593.74
4594.36
4594.15
4594.68
4594.5
4594.94
4594.78
4595.12
4595
4595.25
4595.15
4595.32
4595.25
4595.35
4595.3
4595.35
4595.32
4595.34
4595.32
4595.31
4595.3
4595.29
4595.26
4595.25
4595.27
4595.03
4595.19
4594.78
4594.87
4594.87
4594.69
4595.41
4594.98
4595.74
4595.72
4595.57
4595.66
4595.69
4595.4
4595.67
4595.9
4595.1
4595.33
4594.74
4594.77
4594.83
4594.67
4595.11
4595
4595.22
4595.19
4595.23
4595.2
4595.25
4595.21
4595.27
4595.24
4595.26
4595.24
4595.22
4595.21
4595.14
4595.15
4595.02
4595.05
4594.82
4594.89
4594.56
4594.67
4594.22
4594.37
4593.81
4594.01
4593.34
4593.58
4592.82
4593.1
4592.27
4592.58
4591.74
4592.05
4591.25
4591.58
4590.96
4591.12
4591.04
4591.35
4591.43
4591.61
4591.48
4592.06
4591.92
4592.54
4592.34
4593.03
4592.81
4593.5
4593.28
4593.92
4593.72
4594.29
4594.1
4594.6
4594.43
4594.85
4594.7
4595.03
4594.91
4595.15
4595.06
4595.23
4595.16
4595.27
4595.22
4595.28
4595.24
4595.28
4595.25
4595.25
4595.24
4595.24
4595.21
4595.21
4595.21
4595.03
4595.16
4594.78
4594.89
4594.8
4594.68
4595.28
4594.85
4595.65
4595.6
4595.49
4595.58
4595.6
4595.31
4595.56
4595.8
4594.99
4595.19
4594.71
4594.7
4594.85
4594.71
4595.08
4595
4595.17
4595.14
4595.17
4595.14
4595.19
4595.15
4595.2
4595.18
4595.18
4595.16
4595.14
4595.13
4595.05
4595.06
4594.92
4594.96
4594.73
4594.8
4594.48
4594.58
4594.16
4594.3
4593.78
4593.96
4593.34
4593.57
4592.86
4593.13
4592.36
4592.65
4591.89
4592.17
4591.45
4591.74
4591.2
4591.33
4591.29
4591.56
4591.65
4591.79
4591.68
4592.2
4592.06
4592.62
4592.45
4593.07
4592.88
4593.5
4593.31
4593.89
4593.7
4594.24
4594.06
4594.53
4594.37
4594.76
4594.62
4594.94
4594.83
4595.07
4594.97
4595.15
4595.08
4595.19
4595.14
4595.21
4595.17
4595.22
4595.19
4595.2
4595.18
4595.18
4595.15
4595.16
4595.15
4595.03
4595.13
4594.8
4594.91
4594.74
4594.69
4595.16
4594.74
4595.54
4595.46
4595.41
4595.49
4595.51
4595.24
4595.43
4595.67
4594.9
4595.06
4594.7
4594.65
4594.86
4594.74
4595.06
4594.99
4595.11
4595.09
4595.12
4595.08
4595.14
4595.1
4595.14
4595.11
4595.11
4595.09
4595.06
4595.05
4594.97
4594.98
4594.84
4594.87
4594.65
4594.72
4594.41
4594.51
4594.11
4594.24
4593.75
4593.93
4593.35
4593.56
4592.91
4593.15
4592.45
4592.71
4592.02
4592.28
4591.63
4591.89
4591.42
4591.52
4591.5
4591.76
4591.84
4591.95
4591.85
4592.32
4592.2
4592.7
4592.55
4593.11
4592.94
4593.51
4593.33
4593.87
4593.69
4594.19
4594.02
4594.46
4594.31
4594.69
4594.56
4594.86
4594.75
4594.99
4594.9
4595.07
4595
4595.12
4595.07
4595.15
4595.11
4595.16
4595.13
4595.14
4595.13
4595.12
4595.1
4595.12
4595.09
4595.02
4595.09
4594.81
4594.93
4594.7
4594.71
4595.05
4594.67
4595.42
4595.33
4595.32
4595.39
4595.4
4595.15
4595.3
4595.53
4594.82
4594.94
4594.7
4594.63
4594.87
4594.77
4595.02
4594.98
4595.05
4595.03
4595.06
4595.02
4595.08
4595.05
4595.07
4595.05
4595.04
4595.03
4594.98
4594.98
4594.89
4594.91
4594.76
4594.8
4594.58
4594.64
4594.35
4594.44
4594.06
4594.19
4593.73
4593.89
4593.36
4593.55
4592.95
4593.18
4592.54
4592.78
4592.15
4592.38
4591.79
4592.04
4591.61
4591.7
4591.7
4591.93
4592.01
4592.1
4592.01
4592.43
4592.33
4592.78
4592.64
4593.16
4593
4593.51
4593.35
4593.85
4593.69
4594.15
4593.99
4594.41
4594.26
4594.62
4594.49
4594.79
4594.68
4594.91
4594.82
4595
4594.93
4595.05
4595
4595.08
4595.04
4595.1
4595.07
4595.09
4595.07
4595.07
4595.05
4595.07
4595.03
4595
4595.05
4594.83
4594.93
4594.68
4594.74
4594.95
4594.62
4595.29
4595.19
4595.22
4595.27
4595.29
4595.07
4595.18
4595.39
4594.76
4594.84
4594.7
4594.63
4594.88
4594.79
4594.99
4594.96
4595
4594.98
4595.01
4594.97
4595.02
4595
4595.01
4594.99
4594.97
4594.96
4594.91
4594.91
4594.82
4594.84
4594.68
4594.73
4594.51
4594.58
4594.29
4594.38
4594.02
4594.15
4593.71
4593.87
4593.37
4593.55
4593
4593.21
4592.62
4592.84
4592.27
4592.48
4591.95
4592.17
4591.79
4591.87
4591.88
4592.09
4592.17
4592.24
4592.16
4592.54
4592.45
4592.86
4592.73
4593.2
4593.05
4593.52
4593.38
4593.83
4593.68
4594.11
4593.97
4594.35
4594.22
4594.56
4594.44
4594.72
4594.62
4594.84
4594.76
4594.93
4594.86
4594.99
4594.93
4595.02
4594.98
4595.04
4595.01
4595.04
4595.02
4595.02
4595.01
4595.02
4594.98
4594.98
4595.01
4594.85
4594.93
4594.68
4594.77
4594.86
4594.59
4595.17
4595.07
4595.12
4595.15
4595.18
4594.99
4595.06
4595.26
4594.71
4594.76
4594.72
4594.64
4594.88
4594.81
4594.95
4594.93
4594.95
4594.92
4594.96
4594.92
4594.97
4594.94
4594.95
4594.94
4594.91
4594.9
4594.84
4594.85
4594.75
4594.77
4594.62
4594.66
4594.45
4594.52
4594.24
4594.33
4593.99
4594.11
4593.7
4593.84
4593.38
4593.55
4593.05
4593.23
4592.7
4592.9
4592.38
4592.57
4592.09
4592.29
4591.95
4592.02
4592.04
4592.24
4592.31
4592.37
4592.3
4592.64
4592.56
4592.93
4592.81
4593.24
4593.11
4593.54
4593.4
4593.82
4593.68
4594.08
4593.95
4594.31
4594.18
4594.5
4594.39
4594.66
4594.56
4594.78
4594.7
4594.87
4594.8
4594.93
4594.87
4594.96
4594.92
4594.99
4594.95
4594.99
4594.97
4594.97
4594.96
4594.97
4594.94
4594.96
4594.96
4594.86
4594.93
4594.68
4594.8
4594.79
4594.58
4595.05
4594.95
4595.02
4595.03
4595.07
4594.9
4594.96
4595.13
4594.69
4594.7
4594.74
4594.67
4594.87
4594.83
4594.91
4594.9
4594.9
4594.88
4594.91
4594.88
4594.91
4594.9
4594.89
4594.88
4594.84
4594.84
4594.78
4594.79
4594.68
4594.71
4594.56
4594.6
4594.4
4594.46
4594.2
4594.28
4593.96
4594.07
4593.69
4593.83
4593.4
4593.55
4593.09
4593.26
4592.77
4592.96
4592.48
4592.66
4592.22
4592.4
4592.1
4592.15
4592.18
4592.37
4592.44
4592.49
4592.42
4592.73
4592.66
4592.99
4592.89
4593.27
4593.16
4593.55
4593.43
4593.81
4593.69
4594.05
4593.93
4594.27
4594.15
4594.45
4594.35
4594.6
4594.51
4594.72
4594.64
4594.81
4594.74
4594.87
4594.81
4594.91
4594.87
4594.93
4594.9
4594.94
4594.92
4594.92
4594.91
4594.93
4594.89
4594.93
4594.92
4594.87
4594.91
4594.7
4594.83
4594.74
4594.59
4594.94
4594.86
4594.92
4594.92
4594.96
4594.82
4594.87
4595.01
4594.68
4594.65
4594.76
4594.69
4594.86
4594.84
4594.87
4594.87
4594.85
4594.83
4594.86
4594.84
4594.86
4594.85
4594.83
4594.83
4594.79
4594.79
4594.72
4594.73
4594.63
4594.65
4594.5
4594.55
4594.35
4594.41
4594.16
4594.24
4593.94
4594.04
4593.69
4593.81
4593.42
4593.56
4593.13
4593.29
4592.84
4593.01
4592.58
4592.74
4592.34
4592.51
4592.24
4592.28
4592.32
4592.49
4592.56
4592.6
4592.54
4592.82
4592.75
4593.06
4592.96
4593.31
4593.21
4593.56
4593.45
4593.81
4593.69
4594.03
4593.92
4594.23
4594.12
4594.4
4594.31
4594.55
4594.46
4594.66
4594.59
4594.75
4594.69
4594.81
4594.76
4594.86
4594.81
4594.88
4594.85
4594.89
4594.87
4594.88