/*--------------------------------*- C++ -*----------------------------------*\
| =========                 |                                                 |
| \\      /  F ield         | OpenFOAM: The Open Source CFD Toolbox           |
|  \\    /   O peration     | Version:  v1612+                                |
|   \\  /    A nd           | Web:      www.OpenFOAM.com                      |
|    \\/     M anipulation  |                                                 |
\*---------------------------------------------------------------------------*/
FoamFile
{
    version     2.0;
    format      ascii;
    class       volVectorField;
    location    "290.1";
    object      U;
}
// * * * * * * * * * * * * * * * * * * * * * * * * * * * * * * * * * * * * * //

dimensions      [0 1 -1 0 0 0 0];

internalField   nonuniform List<vector> 
40000
(
(0.00587727 -0.00253962 0)
(0.012188 0.000523017 0)
(0.0114826 0.000587025 0)
(0.010064 0.000493552 0)
(0.00892472 0.000319514 0)
(0.00785066 0.000185668 0)
(0.00685685 0.000114122 0)
(0.00596204 8.27397e-05 0)
(0.00507505 7.36239e-05 0)
(0.00409641 7.16659e-05 0)
(0.00299022 6.20505e-05 0)
(0.00181072 3.32337e-05 0)
(0.000720651 -1.11864e-05 0)
(-7.59197e-05 -3.29163e-05 0)
(-0.000485994 -2.35355e-05 0)
(-0.000565085 -1.44191e-05 0)
(-0.000467806 -1.06395e-05 0)
(-0.000405143 -2.2717e-06 0)
(-0.000287838 -9.00245e-06 0)
(1.91733e-05 -1.44206e-05 0)
(0.000330317 -1.00912e-05 0)
(5.54963e-05 1.64267e-05 0)
(-0.00101713 7.29846e-05 0)
(-0.0019443 6.52115e-05 0)
(-0.00157776 -4.05206e-05 0)
(0.000347842 -0.000109948 0)
(0.00191755 6.96006e-06 0)
(0.00158869 8.5083e-05 0)
(0.000408848 4.67082e-05 0)
(-0.000368113 2.01248e-06 0)
(-0.000223303 -1.74875e-05 0)
(0.000199447 -1.3214e-05 0)
(0.000373429 -1.96905e-06 0)
(0.000428852 -8.48973e-06 0)
(0.000541926 -1.45395e-05 0)
(0.000538921 -2.15882e-05 0)
(0.000216346 -3.58115e-05 0)
(-0.000532597 -2.13818e-05 0)
(-0.00166248 3.08159e-05 0)
(-0.00295289 7.013e-05 0)
(-0.00417641 8.3954e-05 0)
(-0.00523241 8.39542e-05 0)
(-0.00613839 8.74101e-05 0)
(-0.00699404 0.000111627 0)
(-0.00790537 0.000177459 0)
(-0.00888502 0.000308502 0)
(-0.00995141 0.000485707 0)
(-0.0113494 0.000587262 0)
(-0.0121037 0.000527018 0)
(-0.00584673 -0.00252874 0)
(0.00419213 -0.00211735 0)
(0.0104662 -0.000752236 0)
(0.0119784 -0.00046047 0)
(0.0130845 2.92667e-05 0)
(0.0137461 0.000189947 0)
(0.0138807 0.000229288 0)
(0.0136499 0.000250958 0)
(0.013167 0.000273674 0)
(0.0124337 0.000308669 0)
(0.0113825 0.000359921 0)
(0.00991371 0.000415823 0)
(0.0079369 0.000446399 0)
(0.00547361 0.000410573 0)
(0.00279386 0.000288748 0)
(0.000545381 0.000121819 0)
(-0.00060172 1.181e-05 0)
(-0.000883623 -2.32912e-05 0)
(-0.000881038 -2.55273e-05 0)
(-0.000649134 -7.66355e-05 0)
(-0.000129963 -0.000112093 0)
(0.000382621 3.57496e-06 0)
(-0.000711362 0.00025333 0)
(-0.0026433 0.000341974 0)
(-0.00328314 6.94201e-05 0)
(-0.00209594 -0.000398941 0)
(0.000478117 -0.000617101 0)
(0.00271179 -0.000213756 0)
(0.00314992 0.000231565 0)
(0.0016963 0.000347003 0)
(-0.000189024 0.000126576 0)
(-0.000245909 -9.72308e-05 0)
(0.000475998 -0.00011008 0)
(0.000817484 -3.47502e-05 0)
(0.000875087 -2.68206e-05 0)
(0.00073214 -6.12724e-06 0)
(-0.000140476 8.54448e-05 0)
(-0.00226223 0.000263426 0)
(-0.00507414 0.000418197 0)
(-0.00776023 0.000481156 0)
(-0.00992858 0.000456171 0)
(-0.011502 0.000388619 0)
(-0.012573 0.000318547 0)
(-0.013266 0.000265034 0)
(-0.0136767 0.000228516 0)
(-0.0138314 0.000201783 0)
(-0.0136426 0.000167184 0)
(-0.0129617 2.09163e-05 0)
(-0.0118683 -0.00045463 0)
(-0.0103873 -0.000743614 0)
(-0.00416238 -0.00209961 0)
(0.00315785 -0.00448395 0)
(0.00871887 -0.00100485 0)
(0.0103057 -0.000334841 0)
(0.011489 9.64582e-05 0)
(0.0126552 0.000178859 0)
(0.0135327 0.000196009 0)
(0.0141178 0.000239725 0)
(0.0144588 0.000307219 0)
(0.0145517 0.000402607 0)
(0.0143405 0.000535006 0)
(0.0137063 0.000702372 0)
(0.0124448 0.000877626 0)
(0.0103025 0.000993205 0)
(0.00717581 0.000944628 0)
(0.00355382 0.000662676 0)
(0.000585724 0.000276942 0)
(-0.000764625 4.12626e-05 0)
(-0.00108485 -3.88973e-05 0)
(-0.000881058 -0.000161189 0)
(-0.000355314 -0.000222423 0)
(5.09011e-05 0.000100817 0)
(-0.00159681 0.000589871 0)
(-0.00346243 0.000571377 0)
(-0.00348649 -3.06334e-05 0)
(-0.00210208 -0.000794627 0)
(0.000524022 -0.00113238 0)
(0.00280334 -0.000496656 0)
(0.00366985 0.000283662 0)
(0.00265347 0.000684196 0)
(0.000407765 0.000367584 0)
(-2.12653e-05 -0.000151883 0)
(0.000694098 -0.000229526 0)
(0.00104176 -7.12062e-05 0)
(0.000907449 5.39232e-06 0)
(-5.79926e-05 0.000192435 0)
(-0.00274967 0.000586356 0)
(-0.00649481 0.000943779 0)
(-0.00994861 0.00105491 0)
(-0.0123582 0.000956776 0)
(-0.0137487 0.000764803 0)
(-0.0144051 0.000567367 0)
(-0.0145836 0.000405768 0)
(-0.0144397 0.000288201 0)
(-0.014051 0.000207641 0)
(-0.0134331 0.000162358 0)
(-0.0125395 0.000155956 0)
(-0.0113697 8.90719e-05 0)
(-0.0101917 -0.000325755 0)
(-0.00864133 -0.000981271 0)
(-0.00312785 -0.00445479 0)
(0.00243242 -0.00531765 0)
(0.00721698 -0.00157114 0)
(0.00885383 -0.000938924 0)
(0.0100533 -0.000400521 0)
(0.0111941 -0.000162979 0)
(0.0121064 -4.80304e-05 0)
(0.012811 6.45433e-05 0)
(0.01338 0.000188242 0)
(0.0138341 0.000335763 0)
(0.014157 0.000528404 0)
(0.0142872 0.000784102 0)
(0.0140553 0.0011016 0)
(0.0131007 0.00142542 0)
(0.0109076 0.00160309 0)
(0.00731877 0.0014263 0)
(0.00318551 0.000887735 0)
(0.000142172 0.00031086 0)
(-0.00101468 9.06769e-06 0)
(-0.00104051 -0.000228547 0)
(-0.000654939 -0.000300045 0)
(-0.000490399 0.000250481 0)
(-0.00226127 0.000924412 0)
(-0.0037094 0.000723028 0)
(-0.00336285 -0.000181602 0)
(-0.00202718 -0.00119124 0)
(0.000552156 -0.00164715 0)
(0.00279384 -0.000800333 0)
(0.00371926 0.000269306 0)
(0.00317389 0.000978206 0)
(0.00106127 0.000645469 0)
(0.000376925 -0.000154116 0)
(0.000912276 -0.000328195 0)
(0.00107783 -6.64412e-05 0)
(0.000358633 0.000193061 0)
(-0.00222639 0.000736634 0)
(-0.00638045 0.0013664 0)
(-0.0103617 0.00166866 0)
(-0.0129424 0.00154872 0)
(-0.0140817 0.00121222 0)
(-0.0143487 0.000853728 0)
(-0.0141962 0.000556594 0)
(-0.0138397 0.000331802 0)
(-0.0133543 0.000162688 0)
(-0.0127576 2.75114e-05 0)
(-0.0120282 -8.56151e-05 0)
(-0.0110939 -0.000188745 0)
(-0.00993633 -0.000408694 0)
(-0.00873691 -0.000928659 0)
(-0.00713844 -0.00154454 0)
(-0.00240236 -0.00527589 0)
(0.00193769 -0.00632512 0)
(0.00611891 -0.00209652 0)
(0.0077675 -0.00116462 0)
(0.00895864 -0.00051103 0)
(0.0100695 -0.000237899 0)
(0.0109687 -0.000130941 0)
(0.0116601 -2.29976e-05 0)
(0.0122141 0.000104703 0)
(0.0126735 0.000258741 0)
(0.0130651 0.000460678 0)
(0.0134138 0.000739675 0)
(0.0137 0.00112421 0)
(0.0137287 0.00160955 0)
(0.0129106 0.00205989 0)
(0.0104591 0.00216523 0)
(0.00638294 0.00170698 0)
(0.00211549 0.000886505 0)
(-0.000506517 0.000209251 0)
(-0.00109115 -0.000237156 0)
(-0.000986622 -0.000327839 0)
(-0.00100382 0.00041945 0)
(-0.00263076 0.00121165 0)
(-0.00363863 0.000806417 0)
(-0.00316321 -0.00034579 0)
(-0.00191227 -0.00157322 0)
(0.000568648 -0.00214917 0)
(0.00274757 -0.00109455 0)
(0.0035917 0.000222073 0)
(0.00335459 0.00121015 0)
(0.00156148 0.000910482 0)
(0.000805408 -0.00011531 0)
(0.00108442 -0.000373002 0)
(0.0008296 5.29183e-05 0)
(-0.00114653 0.000668449 0)
(-0.00523054 0.00154416 0)
(-0.00967853 0.00217658 0)
(-0.0126565 0.00220938 0)
(-0.0137732 0.00178082 0)
(-0.0138058 0.00124718 0)
(-0.0135044 0.000807004 0)
(-0.0131342 0.000484124 0)
(-0.0127214 0.000249941 0)
(-0.0122353 7.35041e-05 0)
(-0.0116469 -6.59178e-05 0)
(-0.0109161 -0.000175552 0)
(-0.00998063 -0.00027256 0)
(-0.00884496 -0.00052119 0)
(-0.00765125 -0.00114926 0)
(-0.00604094 -0.00206084 0)
(-0.00190818 -0.00627241 0)
(0.00155793 -0.00708894 0)
(0.00520116 -0.00254988 0)
(0.00686439 -0.00148413 0)
(0.00809345 -0.000814266 0)
(0.00922413 -0.000497459 0)
(0.0101429 -0.00033391 0)
(0.0108427 -0.000179234 0)
(0.0113849 -1.24753e-05 0)
(0.0118088 0.000169189 0)
(0.012142 0.000386479 0)
(0.0124296 0.000669275 0)
(0.01274 0.00105811 0)
(0.0131154 0.00160098 0)
(0.0132806 0.00225255 0)
(0.0122833 0.00270193 0)
(0.0092395 0.00253184 0)
(0.0047377 0.00169088 0)
(0.000748692 0.000664488 0)
(-0.000905521 -0.000129263 0)
(-0.00124744 -0.000307547 0)
(-0.00135517 0.000575017 0)
(-0.00273735 0.00143993 0)
(-0.00340001 0.0008454 0)
(-0.00293001 -0.000505521 0)
(-0.00176823 -0.00193667 0)
(0.000573938 -0.0026316 0)
(0.00265804 -0.00137207 0)
(0.00338965 0.000163746 0)
(0.00330398 0.00138796 0)
(0.00183939 0.0011387 0)
(0.00113211 -5.57062e-05 0)
(0.00109129 -0.000329843 0)
(1.31645e-05 0.00039113 0)
(-0.00346866 0.00141467 0)
(-0.00817786 0.00242393 0)
(-0.0118368 0.00281801 0)
(-0.0133153 0.00247683 0)
(-0.0132825 0.00179515 0)
(-0.012889 0.00118012 0)
(-0.0125637 0.000733199 0)
(-0.0122658 0.000406587 0)
(-0.0119127 0.000155385 0)
(-0.011455 -5.07072e-05 0)
(-0.0108679 -0.000229716 0)
(-0.010119 -0.000384719 0)
(-0.00915444 -0.000536202 0)
(-0.00799047 -0.00082765 0)
(-0.00675296 -0.0014672 0)
(-0.00512466 -0.00250569 0)
(-0.00152918 -0.007025 0)
(0.00126873 -0.00775264 0)
(0.00446526 -0.0030012 0)
(0.00615433 -0.0017909 0)
(0.00742889 -0.00106141 0)
(0.00858233 -0.000680726 0)
(0.00952037 -0.000471283 0)
(0.0102329 -0.000287641 0)
(0.0107769 -9.74095e-05 0)
(0.0111902 0.000103368 0)
(0.0114925 0.000334147 0)
(0.0117131 0.000620376 0)
(0.0119116 0.000995522 0)
(0.0122101 0.00151966 0)
(0.0127035 0.00224306 0)
(0.0128115 0.00297206 0)
(0.0111917 0.00319814 0)
(0.00736074 0.00257027 0)
(0.00270481 0.00136333 0)
(-0.000317629 0.000170451 0)
(-0.0013478 -0.000229856 0)
(-0.00150306 0.000704136 0)
(-0.00263823 0.00161589 0)
(-0.00306753 0.00086066 0)
(-0.00266771 -0.000651357 0)
(-0.00160524 -0.00227696 0)
(0.000567244 -0.00308757 0)
(0.00252865 -0.00162832 0)
(0.00313719 0.000107794 0)
(0.00309728 0.00152865 0)
(0.00189789 0.00132539 0)
(0.00129967 2.97237e-05 0)
(0.000788272 -0.000144795 0)
(-0.00152593 0.000992359 0)
(-0.00604307 0.00230187 0)
(-0.0104277 0.00319828 0)
(-0.0127262 0.00319712 0)
(-0.0129226 0.0025132 0)
(-0.0124216 0.00171528 0)
(-0.0120978 0.00111385 0)
(-0.0119018 0.000683091 0)
(-0.0116751 0.000351574 0)
(-0.0113502 8.39859e-05 0)
(-0.0108978 -0.000144031 0)
(-0.0103018 -0.000350009 0)
(-0.00953092 -0.00053478 0)
(-0.00853737 -0.000729651 0)
(-0.00734153 -0.00107948 0)
(-0.00605156 -0.00177252 0)
(-0.00439184 -0.00294878 0)
(-0.00124103 -0.00767796 0)
(0.0010438 -0.00831214 0)
(0.00386746 -0.00342941 0)
(0.00558379 -0.00209683 0)
(0.00690298 -0.00132421 0)
(0.00807979 -0.000895106 0)
(0.00903711 -0.000641626 0)
(0.00976382 -0.000422718 0)
(0.0103133 -0.000201594 0)
(0.0107244 2.80397e-05 0)
(0.011016 0.000282134 0)
(0.0112082 0.000583694 0)
(0.0113369 0.000958291 0)
(0.0114816 0.00144941 0)
(0.0118673 0.00214587 0)
(0.0124693 0.00301674 0)
(0.0121187 0.00362257 0)
(0.00948763 0.00337447 0)
(0.00496041 0.00221397 0)
(0.000872576 0.000706774 0)
(-0.00121196 -6.32988e-05 0)
(-0.00146218 0.000811098 0)
(-0.0023869 0.00175249 0)
(-0.00267695 0.000866759 0)
(-0.0023817 -0.000777628 0)
(-0.00143063 -0.00258995 0)
(0.000547983 -0.00351171 0)
(0.00236492 -0.00185924 0)
(0.0028344 6.28727e-05 0)
(0.0027795 0.0016484 0)
(0.00176829 0.00147562 0)
(0.00129483 0.000165851 0)
(7.58728e-06 0.000251892 0)
(-0.00354674 0.00178869 0)
(-0.00834558 0.00318158 0)
(-0.0117388 0.00375725 0)
(-0.0126601 0.00332762 0)
(-0.0121553 0.00243021 0)
(-0.011712 0.00163867 0)
(-0.0115724 0.00107656 0)
(-0.0114555 0.000646774 0)
(-0.0112572 0.000296555 0)
(-0.0109405 2.17329e-06 0)
(-0.0104858 -0.000257078 0)
(-0.00987834 -0.000495883 0)
(-0.00908572 -0.000716954 0)
(-0.00806411 -0.000954722 0)
(-0.00683574 -0.00134918 0)
(-0.00549299 -0.00207871 0)
(-0.0037986 -0.00336946 0)
(-0.00101737 -0.0082272 0)
(0.000869253 -0.00879463 0)
(0.0033861 -0.0038448 0)
(0.00512297 -0.0024059 0)
(0.00647783 -0.00159232 0)
(0.00767081 -0.00111203 0)
(0.00864094 -0.000809442 0)
(0.00937791 -0.000551886 0)
(0.00993236 -0.000298513 0)
(0.0103444 -4.10066e-05 0)
(0.0106335 0.000235418 0)
(0.0108172 0.000553955 0)
(0.0109226 0.000937833 0)
(0.0109858 0.00141276 0)
(0.0111602 0.00204996 0)
(0.0117568 0.00293179 0)
(0.0122095 0.00380622 0)
(0.0108838 0.00399997 0)
(0.00710216 0.00309449 0)
(0.00253126 0.00144106 0)
(-0.000741145 0.000245952 0)
(-0.0012741 0.000911571 0)
(-0.00202591 0.00186211 0)
(-0.00224704 0.000874113 0)
(-0.00208021 -0.000880346 0)
(-0.00125006 -0.00287214 0)
(0.000515987 -0.00389966 0)
(0.00217109 -0.00206032 0)
(0.00247598 3.46852e-05 0)
(0.00237668 0.00175894 0)
(0.00148917 0.00159853 0)
(0.00109953 0.000384757 0)
(-0.00130037 0.000862828 0)
(-0.00566469 0.00268067 0)
(-0.0100627 0.00393407 0)
(-0.01219 0.0040716 0)
(-0.0120961 0.00329171 0)
(-0.0114537 0.00232902 0)
(-0.0112491 0.00159895 0)
(-0.0112158 0.00105955 0)
(-0.0111228 0.000617661 0)
(-0.0109319 0.000246544 0)
(-0.0106152 -7.41459e-05 0)
(-0.010156 -0.000365022 0)
(-0.00953854 -0.000638344 0)
(-0.00872914 -0.0008989 0)
(-0.0076868 -0.00118427 0)
(-0.00643354 -0.00162596 0)
(-0.00504658 -0.00238975 0)
(-0.00332316 -0.00377828 0)
(-0.000844318 -0.00870013 0)
(0.000733253 -0.00921386 0)
(0.00299743 -0.0042467 0)
(0.0047428 -0.00271626 0)
(0.0061214 -0.00186335 0)
(0.00732181 -0.0013325 0)
(0.00829748 -0.000980545 0)
(0.00903985 -0.000683838 0)
(0.00959739 -0.000398222 0)
(0.0100109 -0.000113129 0)
(0.0103011 0.000187229 0)
(0.0104849 0.000524961 0)
(0.0105857 0.000922583 0)
(0.0106299 0.00139897 0)
(0.0106701 0.00199083 0)
(0.0110374 0.00280974 0)
(0.0117849 0.0038087 0)
(0.0115461 0.00440427 0)
(0.00884498 0.00389616 0)
(0.00437952 0.00230137 0)
(0.000171235 0.000718464 0)
(-0.00097742 0.00104075 0)
(-0.00158819 0.00195383 0)
(-0.00178887 0.000890573 0)
(-0.00177127 -0.000956481 0)
(-0.00106811 -0.00312085 0)
(0.000471546 -0.00424788 0)
(0.00195054 -0.00222674 0)
(0.00205588 2.75901e-05 0)
(0.00190492 0.00186706 0)
(0.00110187 0.00170709 0)
(0.000632256 0.000723903 0)
(-0.00293455 0.00164715 0)
(-0.00756168 0.00355935 0)
(-0.0111004 0.00449131 0)
(-0.0120316 0.00417749 0)
(-0.0114185 0.00318499 0)
(-0.0109651 0.00226073 0)
(-0.0109451 0.00158854 0)
(-0.0109368 0.00104906 0)
(-0.0108469 0.000589175 0)
(-0.0106548 0.00019491 0)
(-0.0103347 -0.000153743 0)
(-0.00987107 -0.000476186 0)
(-0.00924633 -0.000784576 0)
(-0.00842598 -0.00108556 0)
(-0.007371 -0.00141912 0)
(-0.00610199 -0.00190753 0)
(-0.00468251 -0.00270388 0)
(-0.00294153 -0.00417498 0)
(-0.000710023 -0.00911061 0)
(0.000627106 -0.00958284 0)
(0.00268276 -0.00463528 0)
(0.00442328 -0.00302757 0)
(0.00581295 -0.00213558 0)
(0.00701212 -0.0015547 0)
(0.00798621 -0.00115312 0)
(0.00872903 -0.000816478 0)
(0.0092871 -0.000498283 0)
(0.00970144 -0.000185195 0)
(0.00999414 0.000138899 0)
(0.0101821 0.000495861 0)
(0.0102855 0.000907669 0)
(0.0103335 0.00139334 0)
(0.0103343 0.0019658 0)
(0.0104757 0.00270726 0)
(0.0111527 0.00371007 0)
(0.0116181 0.00459927 0)
(0.0100572 0.00454549 0)
(0.00615879 0.00319667 0)
(0.00147488 0.00135842 0)
(-0.000606927 0.00123436 0)
(-0.00110186 0.00203295 0)
(-0.001309 0.000921935 0)
(-0.0014614 -0.00100361 0)
(-0.000888378 -0.00333417 0)
(0.000415487 -0.0045535 0)
(0.00170664 -0.00235278 0)
(0.0015693 4.42654e-05 0)
(0.00137748 0.00197509 0)
(0.000638478 0.00183203 0)
(-0.000181117 0.00118987 0)
(-0.00465067 0.00253783 0)
(-0.0090485 0.00433776 0)
(-0.0115254 0.00483859 0)
(-0.01155 0.0041445 0)
(-0.0108459 0.00307771 0)
(-0.0106552 0.00223237 0)
(-0.010708 0.00159064 0)
(-0.0106916 0.00103867 0)
(-0.0105983 0.000560265 0)
(-0.0104006 0.000142575 0)
(-0.0100761 -0.000234084 0)
(-0.00960921 -0.000588393 0)
(-0.00898057 -0.000932428 0)
(-0.00815505 -0.00127493 0)
(-0.00709527 -0.00165727 0)
(-0.00581966 -0.00219207 0)
(-0.00438028 -0.00302062 0)
(-0.00263484 -0.00456006 0)
(-0.000605765 -0.00947178 0)
(0.000544026 -0.00991128 0)
(0.00242626 -0.0050102 0)
(0.00414936 -0.00333884 0)
(0.00553849 -0.00240716 0)
(0.00672878 -0.00177688 0)
(0.00769505 -0.00132597 0)
(0.00843383 -0.000949161 0)
(0.00898983 -0.000598473 0)
(0.00940394 -0.000257823 0)
(0.00969926 8.95528e-05 0)
(0.00989306 0.000465586 0)
(0.0100034 0.00089157 0)
(0.0100588 0.00138766 0)
(0.0100695 0.0019594 0)
(0.0100841 0.00264304 0)
(0.0105286 0.00358005 0)
(0.011303 0.00463159 0)
(0.0107344 0.00500941 0)
(0.00768337 0.00404237 0)
(0.00299023 0.00212964 0)
(-0.000111168 0.00152174 0)
(-0.000591611 0.00210755 0)
(-0.000809593 0.000972439 0)
(-0.00115546 -0.00101907 0)
(-0.000713507 -0.00351085 0)
(0.000349343 -0.00481426 0)
(0.00144336 -0.00243104 0)
(0.00101516 8.8438e-05 0)
(0.000811954 0.00208002 0)
(0.000156965 0.0019946 0)
(-0.00134114 0.0018013 0)
(-0.00625625 0.00345225 0)
(-0.0100584 0.00496289 0)
(-0.0114907 0.00500173 0)
(-0.0109792 0.00404477 0)
(-0.0104407 0.00300336 0)
(-0.0104391 0.00223067 0)
(-0.0104904 0.00159404 0)
(-0.0104616 0.00102654 0)
(-0.010361 0.000529988 0)
(-0.0101556 8.88939e-05 0)
(-0.00982693 -0.000315426 0)
(-0.0093584 -0.000701331 0)
(-0.00872915 -0.00108115 0)
(-0.00790368 -0.00146568 0)
(-0.00684605 -0.00189688 0)
(-0.005572 -0.00247771 0)
(-0.00412447 -0.003339 0)
(-0.00238703 -0.00493321 0)
(-0.000524726 -0.00979344 0)
(0.000478841 -0.0102069 0)
(0.00221554 -0.00537159 0)
(0.00391051 -0.00364856 0)
(0.00528897 -0.0026765 0)
(0.00646382 -0.00199757 0)
(0.00741697 -0.00149804 0)
(0.00814787 -0.00108126 0)
(0.00869951 -0.000698454 0)
(0.00911221 -0.000330897 0)
(0.00940977 3.91653e-05 0)
(0.00960972 0.000433689 0)
(0.00972961 0.000873758 0)
(0.00979309 0.00137927 0)
(0.0098249 0.00195825 0)
(0.00980612 0.00261216 0)
(0.0100176 0.00346313 0)
(0.0107965 0.00456059 0)
(0.0109554 0.00529007 0)
(0.00885265 0.00477598 0)
(0.00452651 0.00297491 0)
(0.000606422 0.00192731 0)
(-9.59995e-05 0.00218776 0)
(-0.000290106 0.00104273 0)
(-0.000856957 -0.00099932 0)
(-0.000545296 -0.00364993 0)
(0.00027552 -0.00502852 0)
(0.00116629 -0.00245439 0)
(0.000402954 0.000165463 0)
(0.000235504 0.00217855 0)
(-0.000355236 0.00222836 0)
(-0.0027133 0.00252646 0)
(-0.00762113 0.00431458 0)
(-0.0106153 0.00541504 0)
(-0.0111718 0.00502852 0)
(-0.0104635 0.00393343 0)
(-0.0101721 0.00296686 0)
(-0.0102528 0.00224004 0)
(-0.0102763 0.00159422 0)
(-0.0102372 0.00101231 0)
(-0.0101258 0.000497864 0)
(-0.00991267 3.39137e-05 0)
(-0.0095806 -0.000397553 0)
(-0.0091121 -0.000814523 0)
(-0.00848517 -0.00122996 0)
(-0.00766432 -0.00165662 0)
(-0.00661483 -0.00213636 0)
(-0.00534944 -0.00276276 0)
(-0.00390415 -0.00365759 0)
(-0.00218553 -0.00529461 0)
(-0.000461705 -0.0100834 0)
(0.000427546 -0.0104758 0)
(0.00204087 -0.00571975 0)
(0.00369908 -0.0039551 0)
(0.00505834 -0.00294224 0)
(0.00621225 -0.00221555 0)
(0.00714796 -0.00166844 0)
(0.00786785 -0.00121223 0)
(0.00841323 -0.000797909 0)
(0.00882346 -0.000404228 0)
(0.00912271 -1.23023e-05 0)
(0.00932847 0.000399988 0)
(0.00945862 0.000853883 0)
(0.00953202 0.001368 0)
(0.0095807 0.00195505 0)
(0.00958009 0.00260131 0)
(0.00963725 0.00337818 0)
(0.0102487 0.00444116 0)
(0.0108393 0.0054142 0)
(0.00964006 0.00536176 0)
(0.00594323 0.0038317 0)
(0.00157662 0.00245205 0)
(0.000359296 0.00229267 0)
(0.000227014 0.00113417 0)
(-0.000568127 -0.000942448 0)
(-0.000384948 -0.0037506 0)
(0.000197074 -0.00519537 0)
(0.000882883 -0.00242198 0)
(-0.000209229 0.000278176 0)
(-0.000302123 0.00226069 0)
(-0.000982831 0.00256457 0)
(-0.00413223 0.00331697 0)
(-0.00867754 0.00506946 0)
(-0.0107975 0.00570141 0)
(-0.0107234 0.00497165 0)
(-0.0100608 0.00384224 0)
(-0.00998071 0.00295862 0)
(-0.0100655 0.00224991 0)
(-0.010062 0.00159046 0)
(-0.0100123 0.000995759 0)
(-0.00988878 0.000463581 0)
(-0.00966849 -2.24923e-05 0)
(-0.00933384 -0.000480194 0)
(-0.0088669 -0.000927539 0)
(-0.00824484 -0.0013782 0)
(-0.00743246 -0.00184673 0)
(-0.00639615 -0.00237436 0)
(-0.00514555 -0.0030458 0)
(-0.00371139 -0.00397478 0)
(-0.00202038 -0.00564459 0)
(-0.000412668 -0.0103477 0)
(0.000387023 -0.0107227 0)
(0.00189461 -0.00605508 0)
(0.00350946 -0.00425699 0)
(0.00484252 -0.00320329 0)
(0.00597099 -0.00242983 0)
(0.00688584 -0.00183645 0)
(0.00759228 -0.00134165 0)
(0.00812994 -0.000896579 0)
(0.00853686 -0.000477643 0)
(0.00883719 -6.47884e-05 0)
(0.00904829 0.000364501 0)
(0.00918812 0.000831702 0)
(0.00927326 0.00135414 0)
(0.00933351 0.00194741 0)
(0.00936601 0.00259803 0)
(0.00935749 0.003326 0)
(0.00975057 0.00431405 0)
(0.0105112 0.00542107 0)
(0.0100722 0.00578828 0)
(0.0071498 0.00464041 0)
(0.0027222 0.00306891 0)
(0.000821718 0.00246171 0)
(0.00068488 0.00124183 0)
(-0.000292566 -0.000850894 0)
(-0.00023311 -0.00381294 0)
(0.000116969 -0.00531477 0)
(0.000602019 -0.00234206 0)
(-0.000718202 0.00041345 0)
(-0.00078951 0.00235526 0)
(-0.0017715 0.00299616 0)
(-0.00546797 0.00412412 0)
(-0.00941091 0.00568568 0)
(-0.0107058 0.00584725 0)
(-0.0102581 0.00487699 0)
(-0.00976874 0.00378254 0)
(-0.00981678 0.00296553 0)
(-0.00986858 0.00225533 0)
(-0.00984584 0.0015832 0)
(-0.00978378 0.000976629 0)
(-0.00964837 0.000427135 0)
(-0.0094217 -8.01919e-05 0)
(-0.0090854 -0.000563101 0)
(-0.00862138 -0.00104001 0)
(-0.00800624 -0.00152528 0)
(-0.00720547 -0.00203513 0)
(-0.00618652 -0.00260975 0)
(-0.0049559 -0.00332562 0)
(-0.00354035 -0.00428906 0)
(-0.00188379 -0.00598354 0)
(-0.000374469 -0.0105913 0)
(0.000354826 -0.0109514 0)
(0.00177074 -0.00637795 0)
(0.00333747 -0.00455298 0)
(0.00463873 -0.00345872 0)
(0.00573817 -0.00263963 0)
(0.00662957 -0.00200147 0)
(0.00732078 -0.00146918 0)
(0.0078497 -0.000994273 0)
(0.00825271 -0.000551017 0)
(0.00855358 -0.000118052 0)
(0.00876947 0.000327444 0)
(0.0089179 0.000807206 0)
(0.00901531 0.0013379 0)
(0.00908493 0.00193545 0)
(0.00914622 0.00259415 0)
(0.00913566 0.00329838 0)
(0.00933971 0.00420334 0)
(0.0100795 0.00535226 0)
(0.0102074 0.00606312 0)
(0.00809947 0.00535467 0)
(0.00392945 0.00374672 0)
(0.00135978 0.00271805 0)
(0.00105612 0.00137149 0)
(-4.68182e-05 -0.000734086 0)
(-8.96311e-05 -0.00383943 0)
(3.73775e-05 -0.00538775 0)
(0.000334374 -0.00222834 0)
(-0.00106872 0.000562706 0)
(-0.00125341 0.00249899 0)
(-0.00270308 0.00351151 0)
(-0.00663587 0.00490067 0)
(-0.00984488 0.00615333 0)
(-0.010441 0.00588668 0)
(-0.00984145 0.00477762 0)
(-0.00955579 0.00375242 0)
(-0.00965134 0.00297676 0)
(-0.00966285 0.00225513 0)
(-0.00962667 0.00157293 0)
(-0.00955074 0.000954842 0)
(-0.00940461 0.000388822 0)
(-0.00917237 -0.000138764 0)
(-0.0088353 -0.000646071 0)
(-0.00837524 -0.00115162 0)
(-0.00776864 -0.00167074 0)
(-0.00698196 -0.00222109 0)
(-0.00598371 -0.0028416 0)
(-0.00477738 -0.00360119 0)
(-0.00338664 -0.00459912 0)
(-0.00176961 -0.00631177 0)
(-0.000344632 -0.0108178 0)
(0.000329048 -0.0111651 0)
(0.00166459 -0.00668859 0)
(0.00317996 -0.00484204 0)
(0.00444502 -0.00370783 0)
(0.00551269 -0.00284434 0)
(0.00637882 -0.00216309 0)
(0.0070536 -0.00159458 0)
(0.00757316 -0.00109087 0)
(0.00797191 -0.000624244 0)
(0.00827291 -0.000172013 0)
(0.00849298 0.000288948 0)
(0.00864888 0.000780521 0)
(0.00875776 0.00131933 0)
(0.00883677 0.00192009 0)
(0.0089172 0.00258583 0)
(0.00893655 0.00328483 0)
(0.00901607 0.00411874 0)
(0.00962543 0.00524437 0)
(0.0101175 0.00620673 0)
(0.00878107 0.00594627 0)
(0.0050945 0.00444853 0)
(0.00201633 0.00306851 0)
(0.00136596 0.00153842 0)
(0.000166432 -0.000602691 0)
(4.69615e-05 -0.00383455 0)
(-4.03364e-05 -0.00541672 0)
(9.0205e-05 -0.00209687 0)
(-0.00131331 0.000733958 0)
(-0.00174287 0.00271817 0)
(-0.00371491 0.00409157 0)
(-0.00759048 0.00560653 0)
(-0.0100258 0.00647866 0)
(-0.0100886 0.0058551 0)
(-0.00949881 0.00469294 0)
(-0.00938545 0.00374371 0)
(-0.00947297 0.00298551 0)
(-0.00945108 0.00224987 0)
(-0.00940362 0.00155987 0)
(-0.00931367 0.000930427 0)
(-0.00915826 0.000348783 0)
(-0.00892126 -0.000198142 0)
(-0.00858419 -0.000728904 0)
(-0.00812892 -0.00126216 0)
(-0.00753205 -0.00181422 0)
(-0.0067613 -0.00240405 0)
(-0.00578632 -0.00306915 0)
(-0.00460779 -0.00387164 0)
(-0.00324692 -0.00490385 0)
(-0.00167306 -0.00662944 0)
(-0.000321236 -0.0110306 0)
(0.000308229 -0.0113663 0)
(0.00157253 -0.00698727 0)
(0.00303449 -0.00512338 0)
(0.00426004 -0.00395004 0)
(0.00529397 -0.00304354 0)
(0.00613368 -0.002321 0)
(0.00679137 -0.0017177 0)
(0.00730127 -0.0011863 0)
(0.00769563 -0.000697263 0)
(0.00799645 -0.000226588 0)
(0.00822009 0.000249167 0)
(0.00838244 0.000751887 0)
(0.00850117 0.00129851 0)
(0.00859005 0.00190218 0)
(0.00868156 0.00257222 0)
(0.00873869 0.00327641 0)
(0.00875968 0.00406014 0)
(0.00919993 0.00512528 0)
(0.0098747 0.0062464 0)
(0.00920944 0.00640416 0)
(0.0061412 0.00513503 0)
(0.0027879 0.00350684 0)
(0.0016684 0.00175962 0)
(0.00036667 -0.000452787 0)
(0.000180424 -0.00380255 0)
(-0.000115782 -0.00540525 0)
(-0.000145961 -0.00195658 0)
(-0.00151841 0.000936786 0)
(-0.00229851 0.0030243 0)
(-0.00473111 0.00470817 0)
(-0.00831666 0.00621386 0)
(-0.0100097 0.0066786 0)
(-0.00971249 0.00578381 0)
(-0.00922811 0.00463089 0)
(-0.00922895 0.00374696 0)
(-0.00928046 0.00298865 0)
(-0.00923538 0.00224061 0)
(-0.00917666 0.00154412 0)
(-0.00907377 0.000903587 0)
(-0.00891044 0.000307233 0)
(-0.00866951 -0.000258179 0)
(-0.0083331 -0.000811456 0)
(-0.0078832 -0.00137144 0)
(-0.00729689 -0.00195543 0)
(-0.0065434 -0.00258355 0)
(-0.00559356 -0.00329182 0)
(-0.00444556 -0.00413626 0)
(-0.0031186 -0.00520234 0)
(-0.00159042 -0.00693676 0)
(-0.000302816 -0.0112321 0)
(0.000291244 -0.0115567 0)
(0.00149172 -0.00727435 0)
(0.00289919 -0.00539637 0)
(0.00408285 -0.00418494 0)
(0.00508176 -0.00323694 0)
(0.00589447 -0.002475 0)
(0.00653483 -0.00183849 0)
(0.00703506 -0.00128057 0)
(0.00742505 -0.000770045 0)
(0.00772553 -0.000281696 0)
(0.00795218 0.000208259 0)
(0.00812006 0.000721589 0)
(0.00824678 0.00127561 0)
(0.00834537 0.00188228 0)
(0.00844327 0.00255403 0)
(0.00853279 0.00326711 0)
(0.00854525 0.00402216 0)
(0.00882755 0.00501316 0)
(0.00954277 0.00621121 0)
(0.00941594 0.00673071 0)
(0.0070227 0.00577099 0)
(0.00363378 0.00401505 0)
(0.00201741 0.00204669 0)
(0.000579262 -0.000277282 0)
(0.00031517 -0.00374213 0)
(-0.000190655 -0.00535814 0)
(-0.000383229 -0.00179813 0)
(-0.00174263 0.00118109 0)
(-0.00293284 0.00341431 0)
(-0.00568452 0.00532912 0)
(-0.0088211 0.00670827 0)
(-0.00985329 0.00677606 0)
(-0.00935394 0.00569717 0)
(-0.00901278 0.00459151 0)
(-0.00906874 0.00375415 0)
(-0.00907691 0.00298556 0)
(-0.00901692 0.00222821 0)
(-0.00894655 0.00152578 0)
(-0.00883249 0.000874613 0)
(-0.00866245 0.000264383 0)
(-0.00841838 -0.00031873 0)
(-0.00808318 -0.000893614 0)
(-0.00763905 -0.00147936 0)
(-0.00706383 -0.0020942 0)
(-0.00632843 -0.00275927 0)
(-0.00540501 -0.00350917 0)
(-0.00428956 -0.00439451 0)
(-0.00299964 -0.00549387 0)
(-0.00151878 -0.00723404 0)
(-0.00028823 -0.0114241 0)
(0.000277218 -0.0117381 0)
(0.00141993 -0.00755019 0)
(0.00277255 -0.0056606 0)
(0.00391279 -0.00441226 0)
(0.00487601 -0.00342437 0)
(0.00566162 -0.00262502 0)
(0.00628475 -0.00195693 0)
(0.00677551 -0.00137368 0)
(0.00716127 -0.000842589 0)
(0.00746132 -0.00033727 0)
(0.00769049 0.000166363 0)
(0.00786306 0.000689895 0)
(0.00799606 0.00125087 0)
(0.00810332 0.00186077 0)
(0.0082056 0.00253247 0)
(0.00831739 0.00325382 0)
(0.00835079 0.00399767 0)
(0.00851299 0.00491752 0)
(0.00917256 0.00612817 0)
(0.00944055 0.00693764 0)
(0.00771694 0.00632997 0)
(0.00449714 0.00456684 0)
(0.00244544 0.00240243 0)
(0.000828983 -7.1105e-05 0)
(0.000455423 -0.00365031 0)
(-0.00026535 -0.00527251 0)
(-0.000633446 -0.00161836 0)
(-0.00202612 0.00147408 0)
(-0.0036291 0.00387362 0)
(-0.00652602 0.00592411 0)
(-0.00912483 0.00708709 0)
(-0.00960742 0.00679586 0)
(-0.00903399 0.00561185 0)
(-0.00883213 0.00457047 0)
(-0.00889692 0.00375976 0)
(-0.00886622 0.00297692 0)
(-0.00879644 0.00221328 0)
(-0.00871453 0.00150504 0)
(-0.00859125 0.000843814 0)
(-0.00841556 0.000220422 0)
(-0.00816911 -0.000379664 0)
(-0.00783553 -0.000975295 0)
(-0.00739744 -0.00158583 0)
(-0.00683359 -0.00223039 0)
(-0.00611676 -0.00293099 0)
(-0.00522052 -0.00372087 0)
(-0.00413902 -0.00464594 0)
(-0.00288843 -0.00577788 0)
(-0.00145584 -0.00752157 0)
(-0.000276593 -0.0116083 0)
(0.000265469 -0.0119114 0)
(0.00135543 -0.00781521 0)
(0.00265342 -0.00591579 0)
(0.00374939 -0.00463182 0)
(0.00467678 -0.00360578 0)
(0.00543557 -0.00277105 0)
(0.00604183 -0.00207306 0)
(0.00652346 -0.00146569 0)
(0.00690523 -0.000914911 0)
(0.0072048 -0.000393258 0)
(0.00743609 0.000123605 0)
(0.0076126 0.000657043 0)
(0.00775044 0.00122463 0)
(0.00786473 0.00183788 0)
(0.00797072 0.0025087 0)
(0.00809494 0.00323562 0)
(0.00816117 0.00397999 0)
(0.0082488 0.00484133 0)
(0.00880043 0.0060199 0)
(0.00932559 0.00704243 0)
(0.0082208 0.00679592 0)
(0.00532253 0.00513273 0)
(0.00295618 0.00282086 0)
(0.00113249 0.000170825 0)
(0.000604858 -0.00352139 0)
(-0.000340028 -0.00514487 0)
(-0.000904955 -0.00141007 0)
(-0.00238607 0.00181865 0)
(-0.00435203 0.00438066 0)
(-0.00722574 0.00646848 0)
(-0.00925712 0.00735649 0)
(-0.0093139 0.00676178 0)
(-0.00875844 0.00553749 0)
(-0.00866774 0.00456176 0)
(-0.00871198 0.00376073 0)
(-0.00865164 0.00296386 0)
(-0.00857456 0.00219621 0)
(-0.008482 0.00148215 0)
(-0.00835133 0.000811483 0)
(-0.00817093 0.000175525 0)
(-0.00792278 -0.000440862 0)
(-0.00759119 -0.00105644 0)
(-0.00715927 -0.00169082 0)
(-0.00660692 -0.00236394 0)
(-0.00590882 -0.00309857 0)
(-0.00504008 -0.00392674 0)
(-0.00399338 -0.00489024 0)
(-0.00278372 -0.00605396 0)
(-0.00139981 -0.00779968 0)
(-0.000267209 -0.0117856 0)
(0.00025547 -0.0120777 0)
(0.00129683 -0.00806979 0)
(0.00254087 -0.0061618 0)
(0.00359235 -0.00484356 0)
(0.00448416 -0.00378119 0)
(0.00521673 -0.00291314 0)
(0.00580668 -0.00218695 0)
(0.00627959 -0.00155667 0)
(0.00665761 -0.000987037 0)
(0.00695673 -0.000449623 0)
(0.00718978 8.00966e-05 0)
(0.00736954 0.000623236 0)
(0.00751108 0.00119719 0)
(0.00763055 0.00181385 0)
(0.00773995 0.00248362 0)
(0.00786914 0.00321295 0)
(0.00796807 0.00396399 0)
(0.00802198 0.00478325 0)
(0.008449 0.00590362 0)
(0.00911142 0.00706535 0)
(0.00854459 0.00716242 0)
(0.00606539 0.00568486 0)
(0.00352888 0.00328926 0)
(0.00149366 0.000457292 0)
(0.000765747 -0.00334858 0)
(-0.000414687 -0.00497097 0)
(-0.00120111 -0.00116428 0)