/*--------------------------------*- C++ -*----------------------------------*\
| =========                 |                                                 |
| \\      /  F ield         | OpenFOAM: The Open Source CFD Toolbox           |
|  \\    /   O peration     | Version:  v1612+                                |
|   \\  /    A nd           | Web:      www.OpenFOAM.com                      |
|    \\/     M anipulation  |                                                 |
\*---------------------------------------------------------------------------*/
FoamFile
{
    version     2.0;
    format      ascii;
    class       volVectorField;
    location    "290.1";
    object      Un;
}
// * * * * * * * * * * * * * * * * * * * * * * * * * * * * * * * * * * * * * //

dimensions      [0 1 -1 0 0 0 0];

internalField   nonuniform List<vector> 
40000
(
(0.00484911 0.0155861 0)
(0.0113396 0.0194591 0)
(0.0114333 0.0194657 0)
(0.00990782 0.0192556 0)
(0.00875308 0.0190943 0)
(0.00772726 0.0189767 0)
(0.00676824 0.0189075 0)
(0.00589814 0.0188771 0)
(0.00503641 0.0188689 0)
(0.00408411 0.0188654 0)
(0.00300297 0.0188503 0)
(0.00184467 0.0188113 0)
(0.000767454 0.0187522 0)
(-3.03324e-05 0.0187148 0)
(-0.00045322 0.0187133 0)
(-0.000546159 0.0187184 0)
(-0.000459099 0.0187226 0)
(-0.000399694 0.0187318 0)
(-0.000284506 0.0187245 0)
(1.51599e-05 0.0187198 0)
(0.000319317 0.0187287 0)
(4.03485e-05 0.0187631 0)
(-0.00101463 0.0188274 0)
(-0.00190416 0.0188127 0)
(-0.00151992 0.0186801 0)
(0.000333801 0.018597 0)
(0.00185482 0.0187381 0)
(0.00156935 0.0188384 0)
(0.000420014 0.0187976 0)
(-0.000351899 0.0187437 0)
(-0.000215679 0.0187174 0)
(0.00019767 0.0187198 0)
(0.00036849 0.018732 0)
(0.000422027 0.0187251 0)
(0.00052627 0.0187183 0)
(0.000509716 0.018714 0)
(0.000172185 0.0187096 0)
(-0.000581129 0.0187403 0)
(-0.00169893 0.018809 0)
(-0.00296651 0.0188599 0)
(-0.00416236 0.0188797 0)
(-0.00518932 0.0188808 0)
(-0.00606808 0.018882 0)
(-0.00689841 0.0189035 0)
(-0.00777591 0.0189652 0)
(-0.0087097 0.0190787 0)
(-0.00979455 0.0192423 0)
(-0.011305 0.0194602 0)
(-0.0112681 0.0194608 0)
(-0.00482919 0.0156022 0)
(0.00340952 0.0160592 0)
(0.00985489 0.0181613 0)
(0.011845 0.0183473 0)
(0.0129017 0.0187841 0)
(0.0135812 0.0189614 0)
(0.0137619 0.0190133 0)
(0.0135626 0.0190385 0)
(0.0131038 0.019063 0)
(0.0123951 0.0190987 0)
(0.0113686 0.0191485 0)
(0.00992251 0.0191999 0)
(0.00796431 0.0192223 0)
(0.00551195 0.0191746 0)
(0.00283146 0.0190397 0)
(0.000573276 0.0188625 0)
(-0.000584274 0.0187473 0)
(-0.000874816 0.0187113 0)
(-0.000875587 0.0187093 0)
(-0.000645733 0.0186577 0)
(-0.000132391 0.018623 0)
(0.000375169 0.018743 0)
(-0.000722522 0.0189989 0)
(-0.00264105 0.0190923 0)
(-0.00325172 0.0188133 0)
(-0.00204814 0.0183259 0)
(0.000466678 0.0180984 0)
(0.00266057 0.0185182 0)
(0.00313596 0.01898 0)
(0.00170485 0.0190952 0)
(-0.000177156 0.0188685 0)
(-0.000240819 0.0186387 0)
(0.000473857 0.0186238 0)
(0.000812756 0.0186998 0)
(0.000868168 0.018708 0)
(0.000717444 0.018729 0)
(-0.000165419 0.0188248 0)
(-0.00229836 0.0190125 0)
(-0.00511343 0.0191811 0)
(-0.00778926 0.0192573 0)
(-0.0099378 0.0192415 0)
(-0.0114864 0.0191787 0)
(-0.0125305 0.0191096 0)
(-0.0131973 0.0190542 0)
(-0.0135833 0.0190146 0)
(-0.0137074 0.0189829 0)
(-0.0134746 0.0189347 0)
(-0.0127787 0.0187713 0)
(-0.0117392 0.0183485 0)
(-0.00978592 0.0181676 0)
(-0.00338859 0.0160811 0)
(0.0025631 0.0138962 0)
(0.00821135 0.01777 0)
(0.0101573 0.0184189 0)
(0.0113111 0.0188495 0)
(0.0125005 0.018948 0)
(0.0134185 0.0189739 0)
(0.0140321 0.0190216 0)
(0.0143962 0.0190911 0)
(0.0145126 0.0191867 0)
(0.0143246 0.0193169 0)
(0.0137115 0.0194792 0)
(0.012467 0.0196469 0)
(0.0103345 0.0197531 0)
(0.00720751 0.0196951 0)
(0.00357739 0.0194059 0)
(0.000601047 0.0190152 0)
(-0.000756322 0.0187774 0)
(-0.00107957 0.0186967 0)
(-0.000877558 0.0185738 0)
(-0.000356324 0.0185134 0)
(4.6144e-05 0.0188407 0)
(-0.00160549 0.0193335 0)
(-0.00346096 0.0193173 0)
(-0.0034614 0.01871 0)
(-0.00206112 0.0179333 0)
(0.000514233 0.0175892 0)
(0.00276014 0.0182356 0)
(0.00366009 0.0190278 0)
(0.00266077 0.0194287 0)
(0.000416707 0.0191093 0)
(-1.83559e-05 0.0185849 0)
(0.000691524 0.0185052 0)
(0.00103733 0.018664 0)
(0.000900958 0.0187415 0)
(-7.09489e-05 0.01893 0)
(-0.00277056 0.0193287 0)
(-0.00652493 0.0196931 0)
(-0.00998114 0.0198139 0)
(-0.0123814 0.0197259 0)
(-0.0137541 0.0195422 0)
(-0.0143876 0.0193501 0)
(-0.0145409 0.0191904 0)
(-0.0143721 0.0190718 0)
(-0.0139599 0.0189881 0)
(-0.0133143 0.0189377 0)
(-0.0123821 0.0189215 0)
(-0.0111917 0.0188381 0)
(-0.0100471 0.0184244 0)
(-0.00814198 0.0177916 0)
(-0.00253985 0.0139279 0)
(0.00198111 0.0131311 0)
(0.00680873 0.0171715 0)
(0.00870405 0.017798 0)
(0.00987959 0.0183487 0)
(0.0110436 0.0186002 0)
(0.0119949 0.0187235 0)
(0.012727 0.018841 0)
(0.013318 0.0189675 0)
(0.0137942 0.0191156 0)
(0.0141388 0.019306 0)
(0.0142885 0.0195564 0)
(0.0140726 0.019866 0)
(0.0131278 0.0201808 0)
(0.0109353 0.0203508 0)
(0.00733936 0.0201696 0)
(0.00319873 0.019628 0)
(0.000149396 0.0190486 0)
(-0.00100991 0.0187455 0)
(-0.00103696 0.018507 0)
(-0.000654455 0.0184365 0)
(-0.000493228 0.0189912 0)
(-0.00226884 0.0196662 0)
(-0.00370891 0.0194659 0)
(-0.00334214 0.0185569 0)
(-0.00199076 0.0175392 0)
(0.000543333 0.0170787 0)
(0.00275604 0.0179325 0)
(0.00371253 0.0190105 0)
(0.003181 0.0197197 0)
(0.00106859 0.0193872 0)
(0.000377853 0.0185838 0)
(0.000909187 0.0184071 0)
(0.00107394 0.0186695 0)
(0.000353141 0.0189306 0)
(-0.00223739 0.0194765 0)
(-0.0063984 0.0201094 0)
(-0.0103879 0.0204157 0)
(-0.0129699 0.0203031 0)
(-0.0140998 0.0199761 0)
(-0.0143499 0.0196262 0)
(-0.0141762 0.0193347 0)
(-0.0137965 0.019112 0)
(-0.013288 0.0189416 0)
(-0.0126689 0.0188026 0)
(-0.0119127 0.0186836 0)
(-0.0109412 0.0185712 0)
(-0.00976238 0.018337 0)
(-0.00859029 0.0178052 0)
(-0.0067369 0.0171966 0)
(-0.00195628 0.0131744 0)
(0.00158591 0.0121815 0)
(0.00577597 0.0166216 0)
(0.00762098 0.0175509 0)
(0.00879625 0.0182269 0)
(0.00992779 0.0185187 0)
(0.0108621 0.0186354 0)
(0.0115789 0.0187488 0)
(0.0121534 0.01888 0)
(0.0126332 0.019035 0)
(0.0130447 0.0192353 0)
(0.0134112 0.0195097 0)
(0.013712 0.0198867 0)
(0.0137509 0.0203627 0)
(0.0129352 0.0208049 0)
(0.0104782 0.0209067 0)
(0.00639494 0.0204476 0)
(0.00212149 0.0196258 0)
(-0.000502589 0.0189466 0)
(-0.00108761 0.018499 0)
(-0.000984513 0.0184094 0)
(-0.00100544 0.0191611 0)
(-0.00263819 0.019952 0)
(-0.00363906 0.0195474 0)
(-0.00314553 0.0183916 0)
(-0.00187889 0.0171591 0)
(0.000560295 0.0165796 0)
(0.00271348 0.0176388 0)
(0.00358709 0.0189615 0)
(0.00336222 0.0199495 0)
(0.0015683 0.0196523 0)
(0.000804476 0.0186237 0)
(0.00108067 0.0183628 0)
(0.000826514 0.0187896 0)
(-0.00115068 0.0194074 0)
(-0.00524021 0.0202849 0)
(-0.00969514 0.0209181 0)
(-0.0126798 0.0209535 0)
(-0.0137957 0.0205327 0)
(-0.0138183 0.0200091 0)
(-0.0135012 0.0195772 0)
(-0.0131121 0.0192592 0)
(-0.0126781 0.0190265 0)
(-0.0121707 0.0188484 0)
(-0.0115614 0.0187046 0)
(-0.0108059 0.0185886 0)
(-0.00983691 0.0184813 0)
(-0.00868237 0.0182138 0)
(-0.00750745 0.0175636 0)
(-0.00570356 0.0166559 0)
(-0.0015605 0.0122352 0)
(0.0012809 0.011448 0)
(0.00491417 0.0161585 0)
(0.00672508 0.0172258 0)
(0.00794409 0.0179198 0)
(0.00909039 0.0182552 0)
(0.0100403 0.0184279 0)
(0.0107639 0.0185882 0)
(0.0113255 0.0187587 0)
(0.0117685 0.0189418 0)
(0.01212 0.0191581 0)
(0.0124237 0.0194374 0)
(0.0127472 0.0198201 0)
(0.0131321 0.0203545 0)
(0.0133013 0.0209973 0)
(0.0123013 0.0214417 0)
(0.00925143 0.0212713 0)
(0.00474296 0.0204309 0)
(0.000751562 0.0194031 0)
(-0.000902078 0.0186075 0)
(-0.00124362 0.0184303 0)
(-0.00135615 0.0193176 0)
(-0.00274536 0.0201792 0)
(-0.00340125 0.0195852 0)
(-0.00291445 0.0182313 0)
(-0.00173698 0.0167972 0)
(0.000565714 0.0160992 0)
(0.0026266 0.0173618 0)
(0.00338653 0.0189022 0)
(0.00331257 0.020126 0)
(0.00184649 0.0198808 0)
(0.00112942 0.0186843 0)
(0.00108682 0.0184065 0)
(1.11487e-05 0.0191288 0)
(-0.00347172 0.0201547 0)
(-0.00818732 0.0211639 0)
(-0.0118527 0.0215576 0)
(-0.0133352 0.0212203 0)
(-0.0132994 0.0205475 0)
(-0.0128962 0.0199417 0)
(-0.012557 0.0195015 0)
(-0.012242 0.0191786 0)
(-0.0118696 0.0189281 0)
(-0.0113922 0.01872 0)
(-0.0107855 0.0185365 0)
(-0.0100132 0.0183751 0)
(-0.00901886 0.0182139 0)
(-0.0078408 0.0179038 0)
(-0.00661594 0.0172404 0)
(-0.00484231 0.0162014 0)
(-0.0012554 0.0115125 0)
(0.00104985 0.0108106 0)
(0.00422428 0.0157001 0)
(0.00602249 0.0169152 0)
(0.00729204 0.0176667 0)
(0.00845709 0.0180661 0)
(0.00942244 0.0182856 0)
(0.0101571 0.0184755 0)
(0.0107193 0.0186698 0)
(0.0111501 0.0188724 0)
(0.0114694 0.0191026 0)
(0.0117046 0.0193862 0)
(0.0119149 0.0197566 0)
(0.0122219 0.020274 0)
(0.0127197 0.0209894 0)
(0.0128275 0.021712 0)
(0.0112039 0.0219362 0)
(0.0073662 0.0213098 0)
(0.00270679 0.0201031 0)
(-0.000314524 0.0189081 0)
(-0.00134221 0.0185085 0)
(-0.00150383 0.0194473 0)
(-0.0026473 0.0203545 0)
(-0.00306944 0.0195999 0)
(-0.00265363 0.0180853 0)
(-0.00157553 0.016458 0)
(0.000558906 0.0156446 0)
(0.0024992 0.017106 0)
(0.00313509 0.0188458 0)
(0.00310709 0.0202658 0)
(0.00190589 0.0200677 0)
(0.0012953 0.0187704 0)
(0.000783147 0.0185922 0)
(-0.00152681 0.0197314 0)
(-0.00604585 0.021042 0)
(-0.0104376 0.0219368 0)
(-0.0127407 0.0219364 0)
(-0.0129382 0.0212582 0)
(-0.0124332 0.0204687 0)
(-0.0121007 0.0198746 0)
(-0.0118924 0.019449 0)
(-0.0116502 0.0191202 0)
(-0.0113077 0.018853 0)
(-0.010837 0.0186226 0)
(-0.0102227 0.018412 0)
(-0.00943024 0.0182203 0)
(-0.00841047 0.018015 0)
(-0.00720435 0.0176464 0)
(-0.00592169 0.0169315 0)
(-0.00415473 0.0157513 0)
(-0.00102474 0.0108855 0)
(0.000871313 0.010273 0)
(0.00366545 0.0152667 0)
(0.00546017 0.0166077 0)
(0.0067781 0.0174002 0)
(0.00796322 0.0178476 0)
(0.00894408 0.0181115 0)
(0.00969114 0.0183368 0)
(0.0102574 0.0185621 0)
(0.0106848 0.0187937 0)
(0.010992 0.0190475 0)
(0.0111977 0.0193469 0)
(0.0113372 0.0197178 0)
(0.0114894 0.0202037 0)
(0.0118793 0.0208937 0)
(0.0124823 0.0217582 0)
(0.0121304 0.0223604 0)
(0.00949387 0.0221128 0)
(0.00496216 0.0209541 0)
(0.000875202 0.0194459 0)
(-0.00120483 0.0186751 0)
(-0.00146301 0.0195544 0)
(-0.00239729 0.0204907 0)
(-0.00267939 0.0196056 0)
(-0.00236866 0.017959 0)
(-0.00140211 0.016146 0)
(0.000539353 0.0152214 0)
(0.00233705 0.0168755 0)
(0.00283297 0.0188007 0)
(0.00279067 0.020385 0)
(0.00177749 0.0202181 0)
(0.00128894 0.0189065 0)
(2.14298e-06 0.0189901 0)
(-0.00354686 0.0205286 0)
(-0.00834895 0.0219208 0)
(-0.0117488 0.0224949 0)
(-0.0126721 0.0220681 0)
(-0.0121666 0.021177 0)
(-0.0117193 0.0203924 0)
(-0.011572 0.0198358 0)
(-0.0114441 0.01941 0)
(-0.0112315 0.019062 0)
(-0.0108985 0.0187676 0)
(-0.0104271 0.018506 0)
(-0.00980274 0.0182624 0)
(-0.00899021 0.0180345 0)
(-0.00794598 0.017786 0)
(-0.00671049 0.0173732 0)
(-0.00537107 0.016624 0)
(-0.00359985 0.0153255 0)
(-0.000846967 0.010358 0)
(0.000733727 0.00981007 0)
(0.00321668 0.0148476 0)
(0.00500799 0.0162978 0)
(0.00636406 0.0171292 0)
(0.00756279 0.0176269 0)
(0.00855298 0.0179399 0)
(0.00930844 0.018204 0)
(0.00987837 0.0184617 0)
(0.0103054 0.0187214 0)
(0.0106088 0.0189979 0)
(0.0108051 0.0193147 0)
(0.0109204 0.0196954 0)
(0.0109905 0.0201663 0)
(0.0111686 0.0207986 0)
(0.0117667 0.021675 0)
(0.0122198 0.0225449 0)
(0.0108907 0.0227374 0)
(0.00710459 0.0218342 0)
(0.00253332 0.0201814 0)
(-0.000733 0.0189842 0)
(-0.00127499 0.0196546 0)
(-0.00203769 0.0206002 0)
(-0.0022499 0.0196128 0)
(-0.00206788 0.0178564 0)
(-0.0012225 0.0158645 0)
(0.000506939 0.0148341 0)
(0.00214454 0.0166748 0)
(0.00247498 0.0187725 0)
(0.00238928 0.0204953 0)
(0.00149961 0.0203411 0)
(0.00109256 0.0191245 0)
(-0.0013059 0.0196029 0)
(-0.00566492 0.0214206 0)
(-0.0100668 0.0226722 0)
(-0.0121991 0.0228096 0)
(-0.012105 0.0220339 0)
(-0.0114613 0.0210767 0)
(-0.0112531 0.020352 0)
(-0.0112129 0.0198169 0)
(-0.0111097 0.0193783 0)
(-0.0109056 0.0190089 0)
(-0.010574 0.018688 0)
(-0.0100995 0.0183946 0)
(-0.00946644 0.0181165 0)
(-0.00863893 0.0178489 0)
(-0.00757731 0.0175529 0)
(-0.00631937 0.0170937 0)
(-0.00493305 0.0163123 0)
(-0.00315651 0.0149131 0)
(-0.000710486 0.0099044 0)
(0.000626999 0.00940764 0)
(0.00285523 0.0144437 0)
(0.00463668 0.0159872 0)
(0.00601787 0.0168561 0)
(0.00722206 0.0174032 0)
(0.00821466 0.0177656 0)
(0.00897368 0.0180689 0)
(0.0095454 0.0183589 0)
(0.0099726 0.0186464 0)
(0.010276 0.0189471 0)
(0.0104715 0.0192834 0)
(0.0105815 0.0196784 0)
(0.0106322 0.0201513 0)
(0.0106758 0.0207394 0)
(0.0110444 0.021554 0)
(0.011793 0.0225488 0)
(0.0115529 0.0231416 0)
(0.0088485 0.0226349 0)
(0.0043813 0.0210419 0)
(0.000180035 0.0194572 0)
(-0.000978388 0.0197829 0)
(-0.00160125 0.020692 0)
(-0.00179211 0.0196292 0)
(-0.00175945 0.0177804 0)
(-0.00104142 0.0156164 0)
(0.000462003 0.0144863 0)
(0.00192518 0.0165088 0)
(0.00205514 0.0187655 0)
(0.00191896 0.0206034 0)
(0.00111317 0.0204496 0)
(0.000624845 0.0194624 0)
(-0.00293987 0.0203887 0)
(-0.00756302 0.0222987 0)
(-0.0111049 0.0232287 0)
(-0.0120391 0.0229167 0)
(-0.0114246 0.0219284 0)
(-0.0109699 0.0210086 0)
(-0.0109465 0.0203405 0)
(-0.0109319 0.0198045 0)
(-0.0108323 0.0193474 0)
(-0.0106282 0.0189545 0)
(-0.0102944 0.0186054 0)
(-0.00981674 0.0182803 0)
(-0.00917777 0.0179671 0)
(-0.0083411 0.0176591 0)
(-0.00726985 0.017315 0)
(-0.00599805 0.0168104 0)
(-0.00457764 0.0159981 0)
(-0.0028017 0.0145145 0)
(-0.000605168 0.00951055 0)
(0.000543906 0.00905301 0)
(0.00256323 0.0140546 0)
(0.00432595 0.0156761 0)
(0.00571883 0.0165826 0)
(0.00692026 0.0171784 0)
(0.00790853 0.0175902 0)
(0.00866621 0.0179334 0)
(0.00923717 0.018256 0)
(0.00966401 0.0185716 0)
(0.00996881 0.0188963 0)
(0.0101675 0.0192522 0)
(0.0102796 0.0196618 0)
(0.0103338 0.0201445 0)
(0.0103378 0.0207138 0)
(0.0104805 0.021452 0)
(0.0111586 0.0224514 0)
(0.0116242 0.0233372 0)
(0.0100616 0.0232834 0)
(0.00616083 0.0219367 0)
(0.00148401 0.0200983 0)
(-0.000608146 0.0199749 0)
(-0.00111581 0.0207715 0)
(-0.00131262 0.0196606 0)
(-0.00144992 0.0177335 0)
(-0.000862525 0.0154035 0)
(0.000405416 0.0141809 0)
(0.00168239 0.0163833 0)
(0.00156877 0.0187823 0)
(0.00139292 0.0207118 0)
(0.000650223 0.0205741 0)
(-0.000188691 0.0199276 0)
(-0.00465567 0.0212796 0)
(-0.00905128 0.0230763 0)
(-0.0115297 0.0235761 0)
(-0.0115555 0.0228849 0)
(-0.0108496 0.0218218 0)
(-0.0106576 0.0209799 0)
(-0.0107073 0.0203414 0)
(-0.0106849 0.0197924 0)
(-0.0105827 0.0193164 0)
(-0.0103738 0.0188997 0)
(-0.0100368 0.0185223 0)
(-0.00955714 0.0181652 0)
(-0.00891556 0.0178164 0)
(-0.00807544 0.017467 0)
(-0.00700206 0.0170744 0)
(-0.00572511 0.0165246 0)
(-0.00428403 0.0156817 0)
(-0.00251735 0.0141289 0)
(-0.00052374 0.0091636 0)
(0.000478941 0.00873679 0)
(0.00232559 0.0136802 0)
(0.00406053 0.0153654 0)
(0.00545299 0.0163102 0)
(0.00664436 0.0169542 0)
(0.00762241 0.0174149 0)
(0.00837435 0.0177982 0)
(0.00894203 0.0181533 0)
(0.0093675 0.0184965 0)
(0.00967387 0.0188447 0)
(0.00987758 0.0192201 0)
(0.00999604 0.0196442 0)
(0.0100574 0.0201377 0)
(0.0100713 0.0207067 0)
(0.0100871 0.0213878 0)
(0.0105326 0.0223221 0)
(0.0113078 0.0233704 0)
(0.0107391 0.023747 0)
(0.00768636 0.0227814 0)
(0.00299936 0.0208709 0)
(-0.000112953 0.0202602 0)
(-0.000605818 0.0208469 0)
(-0.000813718 0.0197111 0)
(-0.00114422 0.0177184 0)
(-0.000688506 0.0152271 0)
(0.000338791 0.0139203 0)
(0.00142021 0.0163057 0)
(0.00101481 0.0188266 0)
(0.000828491 0.0208175 0)
(0.00016891 0.0207352 0)
(-0.00134877 0.0205394 0)
(-0.0062611 0.022193 0)
(-0.0100624 0.0237007 0)
(-0.0114941 0.0237398 0)
(-0.0109827 0.022786 0)
(-0.0104424 0.0217476 0)
(-0.0104398 0.0209776 0)
(-0.010488 0.0203436 0)
(-0.0104534 0.0197788 0)
(-0.0103444 0.0192841 0)
(-0.0101287 0.0188437 0)
(-0.00978872 0.0184384 0)
(-0.00930861 0.0180497 0)
(-0.00866765 0.0176652 0)
(-0.00782924 0.0172739 0)
(-0.00676032 0.0168328 0)
(-0.00548604 0.0162383 0)
(-0.00403656 0.015364 0)
(-0.00228816 0.0137563 0)
(-0.000460649 0.00885406 0)
(0.000427987 0.00845157 0)
(0.0021306 0.0133202 0)
(0.00382972 0.0150566 0)
(0.00521131 0.0160404 0)
(0.00638635 0.0167318 0)
(0.00734925 0.0172407 0)
(0.00809171 0.0176638 0)
(0.00865386 0.018051 0)
(0.00907685 0.0184212 0)
(0.0093845 0.0187923 0)
(0.00959354 0.0191864 0)
(0.00972097 0.019625 0)
(0.00979009 0.0201283 0)
(0.00982523 0.0207049 0)
(0.00980759 0.0213567 0)
(0.0100199 0.0222055 0)
(0.0107999 0.0233003 0)
(0.0109599 0.0240278 0)
(0.00885694 0.0235141 0)
(0.00453529 0.0217165 0)
(0.000604034 0.0206643 0)
(-0.000109788 0.0209277 0)
(-0.000294914 0.0197816 0)
(-0.000845907 0.0177385 0)
(-0.000521208 0.0150883 0)
(0.00026467 0.0137062 0)
(0.00114427 0.0162833 0)
(0.000402858 0.0189039 0)
(0.00025241 0.0209173 0)
(-0.000343111 0.0209666 0)
(-0.00272075 0.0212657 0)
(-0.00762629 0.023054 0)
(-0.0106198 0.0241526 0)
(-0.0111739 0.0237673 0)
(-0.0104652 0.0226751 0)
(-0.0101722 0.021711 0)
(-0.010252 0.0209862 0)
(-0.0102724 0.0203428 0)
(-0.0102276 0.0197632 0)
(-0.0101085 0.0192502 0)
(-0.009886 0.0187867 0)
(-0.00954358 0.0183541 0)
(-0.0090646 0.0179342 0)
(-0.00842714 0.0175142 0)
(-0.00759489 0.0170809 0)
(-0.00653609 0.0165918 0)
(-0.00527132 0.0159529 0)
(-0.00382416 0.0150463 0)
(-0.00210218 0.0133963 0)
(-0.000411734 0.00857445 0)
(0.000387877 0.00819161 0)
(0.00196905 0.0129738 0)
(0.00362581 0.0147511 0)
(0.00498781 0.0157746 0)
(0.00614124 0.0165126 0)
(0.00708497 0.0170685 0)
(0.00781495 0.0175309 0)
(0.00836974 0.0179495 0)
(0.00878926 0.0183459 0)
(0.00909768 0.018739 0)
(0.0093118 0.0191511 0)
(0.00944894 0.0196039 0)
(0.00952768 0.0201161 0)
(0.00957975 0.020701 0)
(0.0095804 0.0213455 0)
(0.00963821 0.0221207 0)
(0.0102506 0.0231814 0)
(0.0108432 0.0241524 0)
(0.00964545 0.0240992 0)
(0.00595165 0.0225726 0)
(0.00157376 0.0211888 0)
(0.000346281 0.0210323 0)
(0.000221595 0.0198734 0)
(-0.000557284 0.0177958 0)
(-0.000361855 0.0149879 0)
(0.000186185 0.0135395 0)
(0.000862052 0.0163167 0)
(-0.000208899 0.0190171 0)
(-0.000285732 0.0210006 0)
(-0.000970618 0.0213011 0)
(-0.00413914 0.0220571 0)
(-0.00868341 0.0238077 0)
(-0.0108018 0.0244392 0)
(-0.0107242 0.0237111 0)
(-0.010061 0.0225842 0)
(-0.00997965 0.0217024 0)
(-0.0100634 0.0209954 0)
(-0.0100567 0.0203381 0)
(-0.0100017 0.0197453 0)
(-0.00987099 0.0192143 0)
(-0.00964212 0.0187283 0)
(-0.00929808 0.0182694 0)
(-0.00882169 0.0178191 0)
(-0.00819019 0.017364 0)
(-0.00736784 0.0168891 0)
(-0.00632391 0.0163526 0)
(-0.00507455 0.0156698 0)
(-0.00363881 0.0147303 0)
(-0.00195 0.0130481 0)
(-0.000373795 0.00831901 0)
(0.00035615 0.00795243 0)
(0.00183374 0.0126405 0)
(0.00344313 0.0144504 0)
(0.00477846 0.0155137 0)
(0.00590596 0.0162973 0)
(0.00682737 0.016899 0)
(0.00754256 0.0173997 0)
(0.0080886 0.017849 0)
(0.00850388 0.0182706 0)
(0.00881253 0.0186848 0)
(0.00903129 0.0191142 0)
(0.00917759 0.0195805 0)
(0.00926776 0.0201014 0)
(0.0093314 0.0206928 0)
(0.00936534 0.0213418 0)
(0.00935738 0.0220685 0)
(0.00975124 0.0230547 0)
(0.010514 0.0241599 0)
(0.0100782 0.0245256 0)
(0.00715815 0.0233801 0)
(0.002719 0.0218064 0)
(0.000809424 0.0212006 0)
(0.000679211 0.0199813 0)
(-0.000281977 0.0178877 0)
(-0.000211092 0.0149257 0)
(0.000106251 0.0134204 0)
(0.000582528 0.0163974 0)
(-0.000717518 0.0191528 0)
(-0.000774135 0.0210955 0)
(-0.00175925 0.0217322 0)
(-0.00547436 0.0228643 0)
(-0.00941751 0.0244231 0)
(-0.0107096 0.0245856 0)
(-0.0102577 0.0236169 0)
(-0.00976768 0.0225245 0)
(-0.00981473 0.0217089 0)
(-0.0098654 0.0210002 0)
(-0.00983943 0.02033 0)
(-0.00977229 0.019725 0)
(-0.00963026 0.0191764 0)
(-0.00939575 0.0186689 0)
(-0.00905095 0.0181846 0)
(-0.00857842 0.0177048 0)
(-0.00795487 0.0172152 0)
(-0.00714544 0.0166993 0)
(-0.00612029 0.0161163 0)
(-0.00489135 0.0153902 0)
(-0.00347461 0.0144172 0)
(-0.00182424 0.0127112 0)
(-0.000344324 0.00808319 0)
(0.000330861 0.00773038 0)
(0.00171903 0.0123199 0)
(0.0032775 0.0141556 0)
(0.00458053 0.0152586 0)
(0.00567864 0.0160869 0)
(0.00657538 0.0167327 0)
(0.00727413 0.0172707 0)
(0.00781048 0.0177496 0)
(0.00822099 0.0181956 0)
(0.0085294 0.01863 0)
(0.00875229 0.0190757 0)
(0.00890671 0.0195549 0)
(0.00900884 0.0200843 0)
(0.00908179 0.0206803 0)
(0.00914471 0.0213375 0)
(0.00913471 0.0220407 0)
(0.00933937 0.0229442 0)
(0.0100812 0.0240916 0)
(0.0102134 0.0248006 0)
(0.008108 0.0240932 0)
(0.0039261 0.0224848 0)
(0.00134802 0.0214565 0)
(0.00105053 0.0201112 0)
(-3.65187e-05 0.0180048 0)
(-6.87182e-05 0.0148992 0)
(2.69769e-05 0.0133477 0)
(0.000316172 0.0165115 0)
(-0.00106785 0.019302 0)
(-0.00123908 0.0212392 0)
(-0.00269096 0.0222478 0)
(-0.00664195 0.0236401 0)
(-0.00985189 0.0248903 0)
(-0.0104438 0.0246256 0)
(-0.00983998 0.0235178 0)
(-0.00955377 0.0224943 0)
(-0.00964848 0.0217197 0)
(-0.00965868 0.0209995 0)
(-0.00961926 0.0203189 0)
(-0.00953858 0.0197021 0)
(-0.00938634 0.0191367 0)
(-0.00914694 0.0186088 0)
(-0.00880218 0.0180999 0)
(-0.0083345 0.0175915 0)
(-0.00772043 0.0170682 0)
(-0.00692627 0.0165121 0)
(-0.005923 0.0158838 0)
(-0.00471868 0.015115 0)
(-0.00332719 0.0141085 0)
(-0.0017191 0.0123853 0)
(-0.000321348 0.00786328 0)
(0.00031051 0.00752246 0)
(0.00162052 0.0120116 0)
(0.00312578 0.0138679 0)
(0.00439213 0.0150099 0)
(0.00545822 0.0158817 0)
(0.00632867 0.0165701 0)
(0.0070099 0.017144 0)
(0.00753601 0.0176516 0)
(0.00794149 0.0181209 0)
(0.00824929 0.0185746 0)
(0.00847575 0.019036 0)
(0.00863719 0.0195271 0)
(0.00875048 0.020065 0)
(0.00883272 0.0206644 0)
(0.00891495 0.0213288 0)
(0.00893492 0.0220269 0)
(0.0090149 0.0228597 0)
(0.00962613 0.0239841 0)
(0.010123 0.0249447 0)
(0.0087898 0.0246839 0)
(0.00509126 0.0231868 0)
(0.00200502 0.021807 0)
(0.00136055 0.0202781 0)
(0.000176376 0.0181361 0)
(6.68572e-05 0.014904 0)
(-5.03095e-05 0.013319 0)
(7.30859e-05 0.016643 0)
(-0.00131237 0.0194729 0)
(-0.00172936 0.0214583 0)
(-0.00370317 0.0228283 0)
(-0.00759642 0.024345 0)
(-0.0100327 0.0252157 0)
(-0.0100903 0.0245944 0)
(-0.0094965 0.0234334 0)
(-0.00938267 0.0224855 0)
(-0.00946941 0.0217281 0)
(-0.00944603 0.0209937 0)
(-0.00939539 0.0203051 0)
(-0.00930099 0.0196766 0)
(-0.00913995 0.0190954 0)
(-0.00889643 0.0185479 0)
(-0.00855243 0.0180156 0)
(-0.00809034 0.0174796 0)
(-0.00748687 0.0169235 0)
(-0.00670971 0.0163282 0)
(-0.00573069 0.0156558 0)
(-0.00455438 0.0148451 0)
(-0.00319319 0.0138051 0)
(-0.00163011 0.0120699 0)
(-0.000303348 0.00765625 0)
(0.000293958 0.00732634 0)
(0.00153486 0.0117152 0)
(0.00298557 0.0135879 0)
(0.00421195 0.0147683 0)
(0.00524412 0.0156822 0)
(0.00608731 0.0164114 0)
(0.00675049 0.0170197 0)
(0.00726614 0.0175548 0)
(0.0076665 0.0180465 0)
(0.00797346 0.0185187 0)
(0.00820293 0.018995 0)
(0.00837039 0.0194975 0)
(0.00849324 0.0200434 0)
(0.00858521 0.020646 0)
(0.00867864 0.0213148 0)
(0.00873652 0.0220182 0)
(0.00875788 0.0228012 0)
(0.00919974 0.0238652 0)
(0.00987933 0.0249848 0)
(0.00921816 0.0251413 0)
(0.00613835 0.0238729 0)
(0.00277707 0.0222456 0)
(0.00166304 0.0204992 0)
(0.000376237 0.0182858 0)
(0.00019939 0.0149358 0)
(-0.000125326 0.0133307 0)
(-0.000162118 0.0167831 0)
(-0.00151741 0.0196755 0)
(-0.0022856 0.0217644 0)
(-0.00472002 0.0234452 0)
(-0.00832253 0.0249514 0)
(-0.0100162 0.0254159 0)
(-0.00971312 0.0245235 0)
(-0.00922514 0.0233714 0)
(-0.00922558 0.0224885 0)
(-0.0092763 0.0217308 0)
(-0.00922956 0.0209839 0)
(-0.00916778 0.0202886 0)
(-0.00906073 0.0196488 0)
(-0.00889222 0.0190526 0)
(-0.00864535 0.0184866 0)
(-0.00830271 0.0179317 0)
(-0.00784672 0.017369 0)
(-0.00725461 0.0167811 0)
(-0.00649564 0.0161479 0)
(-0.00554257 0.0154329 0)
(-0.00439694 0.014581 0)
(-0.00307005 0.0135079 0)
(-0.00155381 0.0117649 0)
(-0.000289177 0.00745977 0)
(0.000280328 0.00714023 0)
(0.00145942 0.0114304 0)
(0.002855 0.0133162 0)
(0.00403911 0.014534 0)
(0.00503614 0.0154887 0)
(0.00585163 0.0162567 0)
(0.00649663 0.016898 0)
(0.00700189 0.0174594 0)
(0.00739722 0.0179725 0)
(0.00770322 0.0184624 0)
(0.00793517 0.0189531 0)
(0.00810776 0.0194663 0)
(0.00823833 0.0200198 0)
(0.00833986 0.0206256 0)
(0.00843973 0.0212963 0)
(0.00853016 0.0220086 0)
(0.00854296 0.0227631 0)
(0.00882661 0.0237533 0)
(0.00954641 0.02495 0)
(0.00942435 0.0254676 0)
(0.00702047 0.0245083 0)
(0.00362354 0.0227541 0)
(0.0020119 0.0207862 0)
(0.000588426 0.0184611 0)
(0.000333411 0.014996 0)
(-0.000199826 0.0133783 0)
(-0.000398621 0.0169411 0)
(-0.00174142 0.0199196 0)
(-0.0029204 0.0221545 0)
(-0.00567435 0.0240662 0)
(-0.00882686 0.0254452 0)
(-0.00985894 0.0255137 0)
(-0.00935358 0.024437 0)
(-0.0090093 0.0233321 0)
(-0.00906492 0.0224954 0)
(-0.00907221 0.0217274 0)
(-0.00901045 0.0209711 0)
(-0.00893714 0.0202695 0)
(-0.00881921 0.0196189 0)
(-0.00864441 0.0190087 0)
(-0.00839495 0.0184249 0)
(-0.00805414 0.0178483 0)
(-0.0076046 0.0172599 0)
(-0.00702429 0.0166414 0)
(-0.00628425 0.0159715 0)
(-0.00535827 0.0152155 0)
(-0.00424528 0.0143234 0)
(-0.00295576 0.0132177 0)
(-0.00148749 0.0114699 0)
(-0.000277941 0.00727206 0)
(0.000268941 0.00696272 0)
(0.00139214 0.0111567 0)
(0.00273262 0.0130532 0)
(0.00387298 0.0143073 0)
(0.00483425 0.0153013 0)
(0.00562207 0.0161062 0)
(0.00624909 0.0167787 0)
(0.00674423 0.0173653 0)
(0.00713473 0.0178989 0)
(0.00743973 0.0184058 0)
(0.00767372 0.0189102 0)
(0.00785062 0.0194338 0)
(0.00798722 0.0199944 0)
(0.00809726 0.0206036 0)
(0.00820151 0.0212744 0)
(0.00831438 0.021995 0)
(0.00834814 0.0227385 0)
(0.00851146 0.0236577 0)
(0.00917515 0.0248673 0)
(0.00944833 0.0256746 0)
(0.00771546 0.0250667 0)
(0.00448766 0.0233061 0)
(0.00243967 0.0211418 0)
(0.00083773 0.0186672 0)
(0.000473131 0.0150878 0)
(-0.000274201 0.0134644 0)
(-0.000648258 0.0171207 0)
(-0.00202456 0.0202126 0)
(-0.00361712 0.0226139 0)
(-0.00651699 0.0246611 0)
(-0.00913034 0.0258236 0)
(-0.00961203 0.0255339 0)
(-0.00903278 0.0243518 0)
(-0.00882828 0.023311 0)
(-0.00889275 0.0225007 0)
(-0.00886103 0.0217184 0)
(-0.00878941 0.0209557 0)
(-0.00870472 0.0202481 0)
(-0.00857785 0.0195873 0)
(-0.00839777 0.0189638 0)
(-0.00814644 0.0183629 0)
(-0.00780784 0.0177656 0)
(-0.00736493 0.0171525 0)
(-0.00679666 0.0165044 0)
(-0.00607591 0.0157993 0)
(-0.00517765 0.0150038 0)
(-0.00409866 0.0140727 0)
(-0.00284875 0.012935 0)
(-0.00142902 0.0111846 0)
(-0.000268943 0.00709174 0)
(0.000259266 0.00679272 0)
(0.00133142 0.0108937 0)
(0.00261731 0.0127993 0)
(0.00371315 0.0140884 0)
(0.00463853 0.0151199 0)
(0.00539907 0.0159598 0)
(0.00600857 0.0166619 0)
(0.00649399 0.0172725 0)
(0.00687995 0.0178256 0)
(0.00718397 0.0183488 0)
(0.00741962 0.0188665 0)
(0.00760011 0.0194002 0)
(0.0077413 0.0199675 0)
(0.00785822 0.0205802 0)
(0.00796616 0.0212503 0)
(0.00809159 0.0219766 0)
(0.00815825 0.0227206 0)
(0.0082468 0.0235816 0)
(0.00880199 0.0247592 0)
(0.0093325 0.0257796 0)
(0.00822008 0.0255322 0)
(0.00531397 0.0238721 0)
(0.00295007 0.0215603 0)
(0.00114082 0.0189093 0)
(0.000622232 0.0152168 0)
(-0.000348587 0.0135927 0)
(-0.000919343 0.017329 0)
(-0.00238408 0.0205573 0)
(-0.00434061 0.023121 0)
(-0.00721799 0.0252052 0)
(-0.00926221 0.0260928 0)
(-0.00931736 0.0255001 0)
(-0.00875651 0.0242775 0)
(-0.00866363 0.0233021 0)
(-0.00870752 0.0225014 0)
(-0.00864603 0.0217051 0)
(-0.00856709 0.0209381 0)
(-0.0084719 0.0202246 0)
(-0.00833789 0.0195542 0)
(-0.00815347 0.018918 0)
(-0.00790091 0.0183007 0)
(-0.00756481 0.0176835 0)
(-0.00712864 0.0170466 0)
(-0.00657244 0.0163702 0)
(-0.00587106 0.0156314 0)
(-0.00500075 0.0147981 0)
(-0.00395657 0.0138291 0)
(-0.0027478 0.0126602 0)
(-0.00137674 0.0109085 0)
(-0.00026164 0.00691776 0)
(0.000250895 0.00662937 0)
(0.00127601 0.010641 0)
(0.00250819 0.0125545 0)
(0.00355933 0.0138774 0)
(0.00444913 0.0149447 0)
(0.00518305 0.0158174 0)
(0.00577567 0.0165474 0)
(0.00625185 0.0171807 0)
(0.00663358 0.0177526 0)
(0.00693667 0.0182916 0)
(0.00717367 0.0188222 0)
(0.00735708 0.0193657 0)
(0.00750174 0.0199395 0)
(0.00762369 0.0205558 0)
(0.00773498 0.021225 0)
(0.00786547 0.0219537 0)
(0.00796495 0.0227044 0)
(0.00801962 0.0235234 0)
(0.00844961 0.024643 0)
(0.00911729 0.0258027 0)
(0.00854452 0.0258984 0)
(0.00605792 0.024424 0)
(0.00352255 0.0220288 0)
(0.00150159 0.0191961 0)
(0.000782867 0.0153898 0)
(-0.000422958 0.0137671 0)
(-0.00121519 0.017575 0)
(-0.00281548 0.0209517 0)
(-0.00504983 0.0236516 0)
(-0.00776415 0.0256813 0)
(-0.00925512 0.0262649 0)
(-0.00900638 0.025433 0)
(-0.00852064 0.0242181 0)
(-0.00850192 0.0232997 0)
(-0.00851111 0.0224963 0)
(-0.00842947 0.0216884 0)
(-0.00834426 0.0209187 0)
(-0.00824002 0.0201993 0)
(-0.00810041 0.0195198 0)
(-0.00791249 0.0188715 0)
(-0.00765928 0.0182385 0)
(-0.00732591 0.0176021 0)
(-0.0068965 0.0169424 0)
(-0.0063523 0.0162388 0)
(-0.00567014 0.0154678 0)
(-0.00482769 0.0145983 0)
(-0.00381868 0.0135929 0)
(-0.00265194 0.0123936 0)
(-0.00132934 0.0106415 0)
(-0.000255605 0.0067493 0)
(0.000243509 0.00647202 0)
(0.00122493 0.0103983 0)
(0.00240455 0.0123188 0)
(0.00341132 0.0136741 0)
(0.00426617 0.0147754 0)
(0.00497435 0.015679 0)
(0.00555083 0.0164352 0)
(0.00601829 0.01709 0)
(0.00639609 0.0176799 0)
(0.00669831 0.0182341 0)
(0.00693643 0.0187773 0)
(0.00712218 0.0193304 0)
(0.0072694 0.0199106 0)
(0.00739461 0.0205304 0)
(0.00750875 0.0211989 0)
(0.0076395 0.0219274 0)
(0.00776516 0.0226866 0)
(0.00781628 0.0234798 0)
(0.00812916 0.0245305 0)
(0.00883826 0.0257647 0)
(0.00870771 0.0261668 0)
(0.00668894 0.0249389 0)
(0.00412316 0.0225307 0)
(0.00191184 0.0195332 0)
(0.000954963 0.0156132 0)
(-0.00049691 0.0139921 0)
(-0.00153365 0.0178654 0)
(-0.00329822 0.0213888 0)
(-0.00570719 0.0241822 0)
(-0.00815528 0.0260798 0)
(-0.00914161 0.0263554 0)
(-0.00870037 0.0253494 0)
(-0.00831592 0.024174 0)
(-0.00833509 0.0232988 0)
(-0.00830665 0.0224857 0)
(-0.00821283 0.0216695 0)
(-0.00812179 0.0208977 0)
(-0.00801025 0.0201725 0)
(-0.00786629 0.0194845 0)
(-0.00767565 0.0188244 0)
(-0.00742227 0.0181763 0)
(-0.00709184 0.0175214 0)
(-0.00666919 0.0168398 0)
(-0.00613682 0.0161101 0)
(-0.00547359 0.0153084 0)
(-0.00465863 0.0144046 0)
(-0.00368476 0.0133641 0)
(-0.00256045 0.0121353 0)
(-0.0012858 0.0103831 0)
(-0.000250505 0.00658573 0)
(0.000236861 0.00632012 0)
(0.00117742 0.0101651 0)
(0.00230585 0.0120923 0)