/*--------------------------------*- C++ -*----------------------------------*\
| =========                 |                                                 |
| \\      /  F ield         | OpenFOAM: The Open Source CFD Toolbox           |
|  \\    /   O peration     | Version:  v1612+                                |
|   \\  /    A nd           | Web:      www.OpenFOAM.com                      |
|    \\/     M anipulation  |                                                 |
\*---------------------------------------------------------------------------*/
FoamFile
{
    version     2.0;
    format      ascii;
    class       volVectorField;
    location    "290.1";
    object      UnmUs;
}
// * * * * * * * * * * * * * * * * * * * * * * * * * * * * * * * * * * * * * //

dimensions      [0 1 -1 0 0 0 0];

internalField   nonuniform List<vector> 
40000
(
(-0.00230668 0.0406649 0)
(-0.00190329 0.0424829 0)
(-0.000110721 0.0423542 0)
(-0.000350498 0.0420924 0)
(-0.000385082 0.0421211 0)
(-0.000276829 0.0421574 0)
(-0.000198778 0.0421628 0)
(-0.000143355 0.0421649 0)
(-8.66771e-05 0.0421669 0)
(-2.75846e-05 0.0421634 0)
(2.8589e-05 0.0421511 0)
(7.61651e-05 0.0421283 0)
(0.000105002 0.0420954 0)
(0.000102275 0.0420603 0)
(7.35272e-05 0.0420359 0)
(4.24616e-05 0.0420269 0)
(1.95329e-05 0.0420277 0)
(1.22242e-05 0.0420297 0)
(7.47686e-06 0.0420283 0)
(-9.00409e-06 0.0420299 0)
(-2.46786e-05 0.0420402 0)
(-3.39838e-05 0.042058 0)
(5.59557e-06 0.0420753 0)
(9.00527e-05 0.0420599 0)
(0.000129757 0.0419994 0)
(-3.15016e-05 0.0419688 0)
(-0.000140742 0.042023 0)
(-4.33822e-05 0.0420729 0)
(2.505e-05 0.0420675 0)
(3.63775e-05 0.0420468 0)
(1.71041e-05 0.0420314 0)
(-3.98651e-06 0.0420272 0)
(-1.10787e-05 0.0420293 0)
(-1.53103e-05 0.0420286 0)
(-3.51254e-05 0.0420268 0)
(-6.55205e-05 0.042033 0)
(-9.90746e-05 0.0420551 0)
(-0.000108879 0.0420917 0)
(-8.17925e-05 0.0421285 0)
(-3.056e-05 0.0421547 0)
(3.15276e-05 0.0421681 0)
(9.66842e-05 0.0421704 0)
(0.000157748 0.0421654 0)
(0.000214547 0.0421594 0)
(0.000290447 0.0421501 0)
(0.000393325 0.0421107 0)
(0.000351913 0.0420802 0)
(9.97526e-05 0.0423412 0)
(0.00187472 0.0424778 0)
(0.00228283 0.0406766 0)
(-0.00175577 0.0407788 0)
(-0.00137152 0.0424322 0)
(-0.000299241 0.0421949 0)
(-0.000410067 0.0420762 0)
(-0.000370002 0.0421134 0)
(-0.000266472 0.0421416 0)
(-0.000195911 0.0421496 0)
(-0.000141639 0.0421534 0)
(-8.66148e-05 0.0421551 0)
(-3.12361e-05 0.0421518 0)
(1.97424e-05 0.0421416 0)
(6.14782e-05 0.0421233 0)
(8.6027e-05 0.0420968 0)
(8.43697e-05 0.0420674 0)
(6.25829e-05 0.0420443 0)
(3.91411e-05 0.0420327 0)
(1.97578e-05 0.0420308 0)
(1.22273e-05 0.0420312 0)
(7.63135e-06 0.0420301 0)
(-5.44718e-06 0.0420318 0)
(-1.67173e-05 0.0420415 0)
(-2.50373e-05 0.0420554 0)
(5.05328e-06 0.042066 0)
(7.04905e-05 0.0420515 0)
(0.000107227 0.0420088 0)
(-2.56638e-05 0.0419878 0)
(-0.000114906 0.0420248 0)
(-3.1319e-05 0.0420617 0)
(1.91707e-05 0.0420612 0)
(2.66257e-05 0.042047 0)
(1.14193e-05 0.0420337 0)
(-4.80429e-06 0.0420292 0)
(-1.06063e-05 0.0420307 0)
(-1.55211e-05 0.0420311 0)
(-3.29696e-05 0.0420319 0)
(-5.59588e-05 0.0420413 0)
(-8.10522e-05 0.0420633 0)
(-8.81554e-05 0.0420943 0)
(-6.51407e-05 0.0421239 0)
(-2.06762e-05 0.0421444 0)
(3.50016e-05 0.0421551 0)
(9.53966e-05 0.0421573 0)
(0.000154138 0.0421531 0)
(0.000209573 0.0421462 0)
(0.000278242 0.042135 0)
(0.000377057 0.0421046 0)
(0.000410658 0.0420661 0)
(0.000289645 0.0421845 0)
(0.00134929 0.0424269 0)
(0.00173599 0.0407881 0)
(-0.00133431 0.0412354 0)
(-0.00113861 0.0421209 0)
(-0.000332977 0.0420735 0)
(-0.000399015 0.0420719 0)
(-0.000346936 0.0421081 0)
(-0.000256196 0.0421277 0)
(-0.00019228 0.0421367 0)
(-0.000140412 0.0421412 0)
(-8.7842e-05 0.0421417 0)
(-3.56377e-05 0.0421367 0)
(1.17445e-05 0.0421254 0)
(4.96911e-05 0.0421084 0)
(7.18885e-05 0.0420873 0)
(7.11158e-05 0.0420662 0)
(5.28894e-05 0.04205 0)
(3.43768e-05 0.0420387 0)
(1.86275e-05 0.0420341 0)
(1.18255e-05 0.0420328 0)
(7.85241e-06 0.0420315 0)
(-2.26722e-06 0.0420334 0)
(-1.06725e-05 0.0420425 0)
(-1.94646e-05 0.0420508 0)
(3.29367e-06 0.0420561 0)
(5.63009e-05 0.0420441 0)
(9.18875e-05 0.0420156 0)
(-2.19605e-05 0.0420014 0)
(-9.69269e-05 0.0420254 0)
(-2.19005e-05 0.042052 0)
(1.63634e-05 0.0420528 0)
(2.00619e-05 0.0420465 0)
(6.52731e-06 0.0420356 0)
(-5.77485e-06 0.0420308 0)
(-9.93948e-06 0.042032 0)
(-1.45632e-05 0.042034 0)
(-2.90673e-05 0.0420374 0)
(-4.68764e-05 0.0420479 0)
(-6.75817e-05 0.0420637 0)
(-7.29769e-05 0.0420854 0)
(-5.21753e-05 0.0421082 0)
(-1.20859e-05 0.0421267 0)
(3.9236e-05 0.0421385 0)
(9.57567e-05 0.0421429 0)
(0.000151516 0.0421405 0)
(0.000204301 0.0421334 0)
(0.000266646 0.042122 0)
(0.000353094 0.0421 0)
(0.000399349 0.0420629 0)
(0.000324399 0.0420655 0)
(0.00112028 0.0421166 0)
(0.00131918 0.041241 0)
(-0.0010125 0.0413891 0)
(-0.000915901 0.0420485 0)
(-0.000336033 0.0420356 0)
(-0.000389654 0.0420633 0)
(-0.000337606 0.0420947 0)
(-0.00025022 0.0421133 0)
(-0.000188309 0.0421243 0)
(-0.000138915 0.0421308 0)
(-8.95072e-05 0.0421319 0)
(-4.1011e-05 0.0421269 0)
(2.95467e-06 0.042115 0)
(3.8882e-05 0.0420973 0)
(6.09809e-05 0.042077 0)
(6.21444e-05 0.0420599 0)
(4.62048e-05 0.0420501 0)
(2.96671e-05 0.0420432 0)
(1.62069e-05 0.0420376 0)
(1.07025e-05 0.0420346 0)
(7.96061e-06 0.0420326 0)
(1.0857e-06 0.0420348 0)
(-6.34726e-06 0.0420443 0)
(-1.69726e-05 0.0420465 0)
(1.09816e-06 0.042049 0)
(4.64823e-05 0.0420394 0)
(8.17169e-05 0.0420211 0)
(-1.97935e-05 0.0420109 0)
(-8.47937e-05 0.0420264 0)
(-1.51112e-05 0.0420452 0)
(1.59495e-05 0.0420458 0)
(1.64134e-05 0.0420464 0)
(2.08096e-06 0.0420378 0)
(-6.93158e-06 0.042032 0)
(-8.7208e-06 0.0420334 0)
(-1.23215e-05 0.042037 0)
(-2.46783e-05 0.0420422 0)
(-4.02714e-05 0.0420494 0)
(-5.87242e-05 0.0420583 0)
(-6.17537e-05 0.0420749 0)
(-4.06778e-05 0.0420962 0)
(-2.64487e-06 0.0421155 0)
(4.47657e-05 0.0421282 0)
(9.68191e-05 0.0421328 0)
(0.000148804 0.04213 0)
(0.000198996 0.0421212 0)
(0.000259084 0.0421081 0)
(0.000342664 0.0420874 0)
(0.000390258 0.0420554 0)
(0.000328939 0.0420288 0)
(0.000900825 0.0420451 0)
(0.00100077 0.0413927 0)
(-0.000789198 0.0415189 0)
(-0.000769374 0.0419935 0)
(-0.000328708 0.0419876 0)
(-0.000364334 0.0420378 0)
(-0.000317909 0.0420797 0)
(-0.000239141 0.0421017 0)
(-0.00018226 0.0421139 0)
(-0.000136129 0.0421216 0)
(-9.03254e-05 0.0421239 0)
(-4.57928e-05 0.0421202 0)
(-5.94228e-06 0.0421099 0)
(2.70157e-05 0.0420931 0)
(4.96471e-05 0.0420719 0)
(5.50739e-05 0.0420537 0)
(4.29115e-05 0.0420457 0)
(2.69173e-05 0.042044 0)
(1.34639e-05 0.0420409 0)
(8.8136e-06 0.0420366 0)
(7.94084e-06 0.0420338 0)
(4.73199e-06 0.0420362 0)
(-3.64482e-06 0.0420463 0)
(-1.66826e-05 0.0420432 0)
(-9.79853e-07 0.0420446 0)
(3.96685e-05 0.0420367 0)
(7.4869e-05 0.0420253 0)
(-1.87397e-05 0.0420174 0)
(-7.64697e-05 0.0420275 0)
(-1.03427e-05 0.0420411 0)
(1.71181e-05 0.042041 0)
(1.52845e-05 0.0420467 0)
(-2.09294e-06 0.0420402 0)
(-8.40806e-06 0.0420331 0)
(-6.92399e-06 0.0420351 0)
(-9.30167e-06 0.0420401 0)
(-2.16798e-05 0.0420442 0)
(-3.72629e-05 0.0420459 0)
(-5.2391e-05 0.0420518 0)
(-5.04234e-05 0.0420692 0)
(-2.79686e-05 0.0420918 0)
(7.02509e-06 0.0421103 0)
(4.968e-05 0.0421212 0)
(9.70292e-05 0.0421244 0)
(0.00014489 0.0421208 0)
(0.000191678 0.042111 0)
(0.000247127 0.0420967 0)
(0.000322424 0.0420735 0)
(0.000364775 0.0420312 0)
(0.000322618 0.0419817 0)
(0.000756904 0.0419904 0)
(0.000780016 0.0415211 0)
(-0.000621505 0.0415867 0)
(-0.000643847 0.0419714 0)
(-0.000312552 0.0419749 0)
(-0.000335089 0.042029 0)
(-0.000300049 0.0420708 0)
(-0.000230282 0.0420914 0)
(-0.000176737 0.0421039 0)
(-0.000133194 0.0421123 0)
(-9.04873e-05 0.0421156 0)
(-4.94253e-05 0.0421134 0)
(-1.33329e-05 0.0421054 0)
(1.60923e-05 0.0420917 0)
(3.74012e-05 0.0420727 0)
(4.64593e-05 0.042053 0)
(4.03858e-05 0.0420418 0)
(2.67656e-05 0.0420413 0)
(1.17843e-05 0.0420424 0)
(6.43956e-06 0.0420392 0)
(7.72329e-06 0.0420351 0)
(8.57201e-06 0.0420376 0)
(-2.19183e-06 0.0420481 0)
(-1.79674e-05 0.0420408 0)
(-2.77939e-06 0.042042 0)
(3.49169e-05 0.0420353 0)
(7.01113e-05 0.0420285 0)
(-1.84504e-05 0.0420217 0)
(-7.05406e-05 0.0420286 0)
(-7.01418e-06 0.042039 0)
(1.92697e-05 0.042038 0)
(1.59317e-05 0.0420471 0)
(-6.03663e-06 0.0420424 0)
(-1.00301e-05 0.0420342 0)
(-4.5225e-06 0.0420372 0)
(-6.87088e-06 0.0420425 0)
(-2.12142e-05 0.0420423 0)
(-3.5698e-05 0.0420415 0)
(-4.47497e-05 0.0420502 0)
(-3.78046e-05 0.0420701 0)
(-1.60822e-05 0.0420908 0)
(1.5036e-05 0.0421058 0)
(5.33212e-05 0.0421141 0)
(9.6694e-05 0.0421158 0)
(0.000141011 0.0421113 0)
(0.000184932 0.0421012 0)
(0.00023721 0.0420868 0)
(0.000304151 0.0420651 0)
(0.000335765 0.0420232 0)
(0.000307398 0.0419698 0)
(0.000633454 0.0419686 0)
(0.000614223 0.0415881 0)
(-0.000491043 0.0416456 0)
(-0.000540637 0.0419554 0)
(-0.000295778 0.0419661 0)
(-0.000307015 0.0420155 0)
(-0.000280982 0.0420577 0)
(-0.000219714 0.0420802 0)
(-0.000169995 0.0420941 0)
(-0.000129334 0.0421033 0)
(-8.98109e-05 0.0421075 0)
(-5.19749e-05 0.0421062 0)
(-1.89822e-05 0.0421001 0)
(7.32697e-06 0.0420895 0)
(2.63132e-05 0.0420744 0)
(3.64397e-05 0.0420564 0)
(3.58697e-05 0.042042 0)
(2.7285e-05 0.042038 0)
(1.2233e-05 0.0420412 0)
(4.43683e-06 0.0420417 0)
(6.96576e-06 0.042037 0)
(1.25325e-05 0.0420386 0)
(-1.71719e-06 0.0420493 0)
(-2.03471e-05 0.0420392 0)
(-4.27041e-06 0.0420404 0)
(3.1592e-05 0.0420347 0)
(6.66537e-05 0.042031 0)
(-1.87069e-05 0.0420246 0)
(-6.60866e-05 0.0420295 0)
(-4.72225e-06 0.0420379 0)
(2.20049e-05 0.0420359 0)
(1.79481e-05 0.0420474 0)
(-9.80991e-06 0.0420437 0)
(-1.14965e-05 0.0420355 0)
(-1.9651e-06 0.04204 0)
(-6.23145e-06 0.0420426 0)
(-2.22525e-05 0.0420389 0)
(-3.2516e-05 0.0420405 0)
(-3.51826e-05 0.0420534 0)
(-2.60188e-05 0.0420723 0)
(-6.50897e-06 0.0420889 0)
(2.10664e-05 0.0421003 0)
(5.5773e-05 0.0421065 0)
(9.55066e-05 0.0421073 0)
(0.000136386 0.0421021 0)
(0.000177309 0.0420915 0)
(0.000225881 0.0420762 0)
(0.000284707 0.0420528 0)
(0.000307756 0.0420105 0)
(0.000291369 0.0419615 0)
(0.000531938 0.0419528 0)
(0.000485228 0.0416463 0)
(-0.000386966 0.0416948 0)
(-0.000453197 0.0419436 0)
(-0.000277316 0.0419625 0)
(-0.000280159 0.0420071 0)
(-0.000261528 0.0420483 0)
(-0.000208696 0.0420715 0)
(-0.000163058 0.0420858 0)
(-0.00012536 0.0420952 0)
(-8.89084e-05 0.0420997 0)
(-5.39459e-05 0.0420991 0)
(-2.34366e-05 0.0420943 0)
(5.74276e-07 0.0420858 0)
(1.74017e-05 0.0420743 0)
(2.68959e-05 0.0420598 0)
(2.92698e-05 0.0420455 0)
(2.62452e-05 0.0420372 0)
(1.40008e-05 0.0420384 0)
(3.9201e-06 0.0420424 0)
(5.89306e-06 0.0420401 0)
(1.59923e-05 0.0420386 0)
(-1.86586e-06 0.0420496 0)
(-2.3317e-05 0.0420381 0)
(-5.46349e-06 0.0420395 0)
(2.92668e-05 0.0420346 0)
(6.39989e-05 0.042033 0)
(-1.93622e-05 0.0420266 0)
(-6.25448e-05 0.0420304 0)
(-3.20225e-06 0.0420374 0)
(2.50582e-05 0.0420345 0)
(2.06331e-05 0.0420477 0)
(-1.3223e-05 0.0420435 0)
(-1.2214e-05 0.0420381 0)
(-2.66672e-07 0.042042 0)
(-7.55066e-06 0.0420404 0)
(-2.24527e-05 0.0420369 0)
(-2.691e-05 0.0420432 0)
(-2.55166e-05 0.0420572 0)
(-1.63969e-05 0.0420728 0)
(7.87021e-07 0.0420853 0)
(2.57153e-05 0.0420942 0)
(5.76312e-05 0.0420991 0)
(9.41458e-05 0.0420992 0)
(0.000131706 0.0420938 0)
(0.000169604 0.0420832 0)
(0.000214252 0.0420677 0)
(0.000265011 0.0420438 0)
(0.000280991 0.0420026 0)
(0.000273529 0.0419584 0)
(0.000445873 0.0419411 0)
(0.000382289 0.0416949 0)
(-0.000304045 0.0417385 0)
(-0.000380076 0.0419353 0)
(-0.000257947 0.0419605 0)
(-0.00025525 0.0420005 0)
(-0.000242345 0.0420395 0)
(-0.00019732 0.042063 0)
(-0.000155846 0.0420777 0)
(-0.000121116 0.0420874 0)
(-8.75693e-05 0.0420923 0)
(-5.53248e-05 0.0420925 0)
(-2.70854e-05 0.0420886 0)
(-4.7839e-06 0.0420815 0)
(1.05298e-05 0.0420724 0)
(1.89828e-05 0.0420613 0)
(2.21418e-05 0.0420492 0)
(2.29857e-05 0.0420391 0)
(1.54068e-05 0.0420362 0)
(5.45068e-06 0.0420413 0)
(4.63912e-06 0.0420427 0)
(1.82717e-05 0.0420381 0)
(-1.98487e-06 0.0420489 0)
(-2.6418e-05 0.0420376 0)
(-6.41736e-06 0.0420391 0)
(2.7645e-05 0.0420347 0)
(6.18145e-05 0.0420345 0)
(-2.02978e-05 0.0420279 0)
(-5.95635e-05 0.0420312 0)
(-2.24945e-06 0.0420372 0)
(2.82682e-05 0.0420337 0)
(2.34077e-05 0.0420478 0)
(-1.56403e-05 0.0420415 0)
(-1.24173e-05 0.0420422 0)
(-5.23999e-07 0.0420419 0)
(-9.32336e-06 0.0420377 0)
(-2.05651e-05 0.0420376 0)
(-2.01465e-05 0.0420469 0)
(-1.72186e-05 0.0420593 0)
(-8.98832e-06 0.0420713 0)
(6.44659e-06 0.042081 0)
(2.94568e-05 0.0420883 0)
(5.89039e-05 0.0420922 0)
(9.24291e-05 0.0420916 0)
(0.000126868 0.0420859 0)
(0.000161746 0.0420752 0)
(0.000202376 0.0420596 0)
(0.000245638 0.0420356 0)
(0.00025614 0.0419965 0)
(0.000254689 0.0419568 0)
(0.000373869 0.041933 0)
(0.000300244 0.0417381 0)
(-0.000238374 0.041776 0)
(-0.000319006 0.0419307 0)
(-0.000238066 0.0419599 0)
(-0.000232257 0.0419959 0)
(-0.000223782 0.0420323 0)
(-0.000185786 0.0420556 0)
(-0.000148444 0.0420705 0)
(-0.000116637 0.0420804 0)
(-8.59174e-05 0.0420857 0)
(-5.62913e-05 0.0420864 0)
(-3.01615e-05 0.0420833 0)
(-9.28629e-06 0.0420773 0)
(5.10285e-06 0.0420696 0)
(1.27955e-05 0.042061 0)
(1.57677e-05 0.0420515 0)
(1.83184e-05 0.0420421 0)
(1.5314e-05 0.0420358 0)
(7.89277e-06 0.0420391 0)
(3.98946e-06 0.0420432 0)
(1.97425e-05 0.042039 0)
(-2.17162e-06 0.0420468 0)
(-2.92875e-05 0.0420378 0)
(-7.26121e-06 0.0420388 0)
(2.65228e-05 0.042035 0)
(5.98677e-05 0.0420357 0)
(-2.14094e-05 0.0420287 0)
(-5.68901e-05 0.0420319 0)
(-1.65756e-06 0.0420372 0)
(3.14933e-05 0.0420337 0)
(2.53475e-05 0.0420476 0)
(-1.66257e-05 0.0420385 0)
(-1.19344e-05 0.0420454 0)
(-2.99023e-06 0.0420404 0)
(-1.01892e-05 0.0420361 0)
(-1.68519e-05 0.04204 0)
(-1.3671e-05 0.0420496 0)
(-1.06501e-05 0.0420596 0)
(-3.23805e-06 0.0420687 0)
(1.11032e-05 0.0420766 0)
(3.25911e-05 0.0420828 0)
(5.9752e-05 0.0420859 0)
(9.04422e-05 0.0420848 0)
(0.000121895 0.0420788 0)
(0.000153805 0.0420681 0)
(0.000190438 0.0420525 0)
(0.000226928 0.0420287 0)
(0.000233195 0.0419923 0)
(0.000235265 0.0419565 0)
(0.0003137 0.0419285 0)
(0.000235236 0.0417753 0)
(-0.000186653 0.0418081 0)
(-0.000268165 0.0419294 0)
(-0.000218346 0.0419603 0)
(-0.000211144 0.0419928 0)
(-0.000206088 0.0420264 0)
(-0.000174276 0.0420491 0)
(-0.000140942 0.042064 0)
(-0.000111993 0.0420739 0)
(-8.39688e-05 0.0420795 0)
(-5.68218e-05 0.0420808 0)
(-3.27009e-05 0.0420785 0)
(-1.31745e-05 0.0420734 0)
(6.00534e-07 0.0420667 0)
(7.95571e-06 0.0420597 0)
(1.05931e-05 0.0420525 0)
(1.33757e-05 0.0420447 0)
(1.35705e-05 0.0420371 0)
(9.93267e-06 0.0420372 0)
(4.56297e-06 0.0420417 0)
(2.04914e-05 0.0420416 0)
(-2.73459e-06 0.0420429 0)
(-3.12869e-05 0.0420386 0)
(-8.13023e-06 0.0420387 0)
(2.57532e-05 0.0420354 0)
(5.79976e-05 0.0420366 0)
(-2.25941e-05 0.0420292 0)
(-5.43861e-05 0.0420329 0)
(-1.20003e-06 0.0420373 0)
(3.46441e-05 0.0420343 0)
(2.6348e-05 0.0420464 0)
(-1.69915e-05 0.0420367 0)
(-1.12228e-05 0.0420456 0)
(-6.24927e-06 0.0420384 0)
(-9.5672e-06 0.0420361 0)
(-1.2298e-05 0.0420426 0)
(-8.20448e-06 0.0420509 0)
(-5.53895e-06 0.0420586 0)
(1.40961e-06 0.0420658 0)
(1.50834e-05 0.0420726 0)
(3.51753e-05 0.0420779 0)
(6.01684e-05 0.0420802 0)
(8.81954e-05 0.0420785 0)
(0.000116826 0.0420723 0)
(0.000145852 0.0420616 0)
(0.0001786 0.0420462 0)
(0.000209113 0.0420231 0)
(0.000212122 0.0419895 0)
(0.000215931 0.0419572 0)
(0.000263575 0.0419272 0)
(0.000184017 0.0418071 0)
(-0.000146013 0.0418354 0)
(-0.000225828 0.0419305 0)
(-0.000199289 0.0419615 0)
(-0.000191829 0.0419908 0)
(-0.0001894 0.0420215 0)
(-0.000162947 0.0420435 0)
(-0.000133429 0.0420581 0)
(-0.000107233 0.0420681 0)
(-8.17583e-05 0.0420739 0)
(-5.69505e-05 0.0420757 0)
(-3.47327e-05 0.0420741 0)
(-1.65306e-05 0.0420699 0)
(-3.29729e-06 0.0420641 0)
(4.0463e-06 0.042058 0)
(6.52084e-06 0.0420524 0)
(8.90003e-06 0.0420462 0)
(1.07164e-05 0.042039 0)
(1.07434e-05 0.0420362 0)
(6.71419e-06 0.0420395 0)
(2.0469e-05 0.0420445 0)
(-4.00353e-06 0.0420382 0)
(-3.18725e-05 0.0420402 0)
(-9.25455e-06 0.0420387 0)
(2.52111e-05 0.0420359 0)
(5.60881e-05 0.0420371 0)
(-2.36713e-05 0.0420295 0)
(-5.19294e-05 0.0420343 0)
(-7.90948e-07 0.0420376 0)
(3.71004e-05 0.0420359 0)
(2.67969e-05 0.0420429 0)
(-1.71199e-05 0.0420373 0)
(-1.08795e-05 0.0420434 0)
(-8.85575e-06 0.0420367 0)
(-7.59802e-06 0.0420372 0)
(-7.76735e-06 0.0420444 0)
(-3.83444e-06 0.0420511 0)
(-1.49034e-06 0.0420571 0)
(5.34388e-06 0.0420631 0)
(1.85138e-05 0.0420691 0)
(3.72368e-05 0.0420734 0)
(6.01848e-05 0.0420749 0)
(8.57202e-05 0.0420728 0)
(0.000111698 0.0420664 0)
(0.000137957 0.0420559 0)
(0.000167002 0.0420407 0)
(0.000192326 0.0420185 0)
(0.000192843 0.0419878 0)
(0.000197205 0.0419586 0)
(0.000221807 0.0419284 0)
(0.000143752 0.0418341 0)
(-0.000114087 0.0418587 0)
(-0.000190546 0.0419333 0)
(-0.000181238 0.0419633 0)
(-0.000174224 0.0419898 0)
(-0.000173792 0.0420177 0)
(-0.000151927 0.0420387 0)
(-0.000125982 0.0420529 0)
(-0.000102407 0.0420628 0)
(-7.93248e-05 0.0420687 0)
(-5.67122e-05 0.042071 0)
(-3.62876e-05 0.0420701 0)
(-1.93737e-05 0.0420667 0)
(-6.73111e-06 0.0420617 0)
(7.48504e-07 0.0420563 0)
(3.29572e-06 0.0420517 0)
(5.16501e-06 0.0420469 0)
(7.45053e-06 0.0420408 0)
(1.01841e-05 0.0420365 0)
(9.63545e-06 0.0420372 0)
(1.96968e-05 0.0420452 0)
(-5.35663e-06 0.0420347 0)
(-3.09333e-05 0.0420413 0)
(-1.07865e-05 0.042039 0)
(2.47899e-05 0.0420366 0)
(5.40388e-05 0.0420376 0)
(-2.43416e-05 0.0420297 0)
(-4.94014e-05 0.0420363 0)
(-2.16182e-07 0.0420381 0)
(3.79274e-05 0.0420388 0)
(2.72012e-05 0.0420376 0)
(-1.67002e-05 0.0420398 0)
(-1.15901e-05 0.0420402 0)
(-1.00324e-05 0.0420361 0)
(-4.82879e-06 0.0420388 0)
(-3.7358e-06 0.0420454 0)
(-3.80188e-07 0.0420507 0)
(1.82583e-06 0.0420554 0)
(8.77556e-06 0.0420607 0)
(2.14268e-05 0.0420658 0)
(3.88049e-05 0.0420693 0)
(5.98349e-05 0.0420701 0)
(8.30486e-05 0.0420675 0)
(0.000106553 0.0420611 0)
(0.000130188 0.0420508 0)
(0.00015576 0.042036 0)
(0.000176633 0.0420149 0)
(0.000175271 0.0419869 0)
(0.000179439 0.0419606 0)
(0.000186972 0.0419313 0)
(0.000112103 0.0418572 0)
(-8.89928e-05 0.0418786 0)
(-0.00016111 0.0419372 0)
(-0.000164384 0.0419655 0)
(-0.000158223 0.0419894 0)
(-0.000159287 0.0420147 0)
(-0.000141314 0.0420345 0)
(-0.000118669 0.0420484 0)
(-9.7564e-05 0.042058 0)
(-7.67193e-05 0.0420641 0)
(-5.61517e-05 0.0420667 0)
(-3.74039e-05 0.0420664 0)
(-2.17249e-05 0.0420638 0)
(-9.74005e-06 0.0420596 0)
(-2.14197e-06 0.0420547 0)
(6.84412e-07 0.0420507 0)
(2.15915e-06 0.042047 0)
(4.29347e-06 0.042042 0)
(8.54499e-06 0.0420375 0)
(1.20966e-05 0.0420357 0)
(1.88876e-05 0.0420434 0)
(-6.40993e-06 0.0420342 0)
(-2.91985e-05 0.0420405 0)
(-1.21555e-05 0.0420396 0)
(2.4325e-05 0.0420374 0)
(5.18058e-05 0.0420379 0)
(-2.44295e-05 0.0420299 0)
(-4.67335e-05 0.0420384 0)
(7.40231e-07 0.0420391 0)
(3.67733e-05 0.0420412 0)
(2.73991e-05 0.0420335 0)
(-1.54902e-05 0.0420417 0)
(-1.31819e-05 0.0420373 0)
(-9.73601e-06 0.0420365 0)
(-1.84915e-06 0.0420401 0)
(-3.62569e-07 0.0420457 0)
(2.37105e-06 0.0420499 0)
(4.64915e-06 0.0420538 0)
(1.17867e-05 0.0420585 0)
(2.384e-05 0.0420628 0)
(3.99101e-05 0.0420655 0)
(5.91628e-05 0.0420657 0)
(8.02348e-05 0.0420628 0)
(0.000101432 0.0420563 0)
(0.000122599 0.0420462 0)
(0.00014496 0.0420321 0)
(0.000162057 0.0420121 0)
(0.000159301 0.0419867 0)
(0.000162831 0.041963 0)
(0.000157891 0.0419352 0)
(8.72098e-05 0.0418771 0)
(-6.92622e-05 0.0418958 0)
(-0.000136538 0.0419417 0)
(-0.00014881 0.041968 0)
(-0.000143708 0.0419896 0)
(-0.000145879 0.0420125 0)
(-0.00013118 0.0420311 0)
(-0.000111545 0.0420443 0)
(-9.27465e-05 0.0420537 0)
(-7.39784e-05 0.0420598 0)
(-5.53158e-05 0.0420628 0)
(-3.81383e-05 0.0420629 0)
(-2.36198e-05 0.042061 0)
(-1.23314e-05 0.0420575 0)
(-4.72759e-06 0.0420533 0)
(-1.49388e-06 0.0420497 0)
(-2.33643e-07 0.0420468 0)
(1.52043e-06 0.0420428 0)
(6.2894e-06 0.0420386 0)
(1.33506e-05 0.0420352 0)
(1.87398e-05 0.0420406 0)
(-7.1734e-06 0.0420356 0)
(-2.75807e-05 0.0420388 0)
(-1.27182e-05 0.0420402 0)
(2.37543e-05 0.0420382 0)
(4.93951e-05 0.0420382 0)
(-2.40447e-05 0.0420303 0)
(-4.37252e-05 0.04204 0)
(1.53485e-06 0.0420398 0)
(3.44911e-05 0.0420419 0)
(2.74724e-05 0.0420324 0)
(-1.43405e-05 0.0420416 0)
(-1.48162e-05 0.0420354 0)
(-8.3154e-06 0.0420375 0)
(9.24034e-07 0.042041 0)
(2.36732e-06 0.0420457 0)
(4.59284e-06 0.0420489 0)
(7.13132e-06 0.0420523 0)
(1.43967e-05 0.0420564 0)
(2.57815e-05 0.04206 0)
(4.06237e-05 0.042062 0)
(5.82186e-05 0.0420617 0)
(7.7301e-05 0.0420585 0)
(9.63695e-05 0.0420521 0)
(0.000115238 0.0420423 0)
(0.000134665 0.0420287 0)
(0.000148586 0.0420099 0)
(0.000144817 0.0419871 0)
(0.000147471 0.0419656 0)
(0.000133604 0.0419398 0)
(6.76273e-05 0.0418942 0)
(-5.37632e-05 0.0419106 0)
(-0.00011602 0.0419466 0)
(-0.000134532 0.0419707 0)
(-0.000130558 0.0419902 0)
(-0.000133534 0.0420108 0)
(-0.000121571 0.0420282 0)
(-0.000104656 0.0420408 0)
(-8.79924e-05 0.0420499 0)
(-7.11446e-05 0.042056 0)
(-5.42491e-05 0.0420591 0)
(-3.85379e-05 0.0420597 0)
(-2.51056e-05 0.0420583 0)
(-1.45178e-05 0.0420556 0)
(-7.04099e-06 0.042052 0)
(-3.3751e-06 0.0420486 0)
(-2.13626e-06 0.0420463 0)
(-7.77306e-07 0.0420431 0)
(3.85658e-06 0.0420397 0)
(1.32992e-05 0.0420356 0)
(1.91501e-05 0.0420378 0)
(-7.51307e-06 0.0420369 0)
(-2.63675e-05 0.0420377 0)
(-1.25285e-05 0.0420405 0)
(2.31059e-05 0.0420386 0)
(4.69157e-05 0.0420381 0)
(-2.33326e-05 0.042031 0)
(-4.08361e-05 0.0420408 0)
(1.94897e-06 0.0420395 0)
(3.21556e-05 0.0420417 0)
(2.71803e-05 0.0420328 0)
(-1.36345e-05 0.0420399 0)
(-1.57261e-05 0.0420344 0)
(-6.20859e-06 0.0420386 0)
(3.28697e-06 0.0420416 0)
(4.53505e-06 0.0420455 0)
(6.42429e-06 0.0420478 0)
(9.34669e-06 0.0420509 0)
(1.66129e-05 0.0420545 0)
(2.72953e-05 0.0420574 0)
(4.09906e-05 0.0420587 0)
(5.70478e-05 0.042058 0)
(7.42931e-05 0.0420546 0)
(9.13992e-05 0.0420482 0)
(0.000108142 0.0420388 0)
(0.000124916 0.0420259 0)
(0.000136187 0.0420084 0)
(0.000131696 0.0419878 0)
(0.00013338 0.0419684 0)
(0.000113313 0.0419448 0)
(5.22353e-05 0.041909 0)
(-4.15876e-05 0.0419234 0)
(-9.88639e-05 0.0419517 0)
(-0.00012153 0.0419735 0)
(-0.000118651 0.0419911 0)
(-0.000122205 0.0420097 0)
(-0.000112517 0.0420257 0)
(-9.80346e-05 0.0420377 0)
(-8.3334e-05 0.0420465 0)
(-6.82542e-05 0.0420525 0)
(-5.29912e-05 0.0420558 0)
(-3.86473e-05 0.0420568 0)
(-2.6233e-05 0.0420559 0)
(-1.63256e-05 0.0420537 0)
(-9.08371e-06 0.0420507 0)
(-5.05094e-06 0.0420476 0)
(-3.65319e-06 0.0420456 0)
(-2.61297e-06 0.0420433 0)
(1.55753e-06 0.0420404 0)
(1.22e-05 0.0420364 0)
(1.95896e-05 0.0420357 0)
(-7.26543e-06 0.0420371 0)
(-2.5369e-05 0.0420375 0)
(-1.21338e-05 0.0420404 0)
(2.23071e-05 0.0420383 0)
(4.46337e-05 0.0420377 0)
(-2.23735e-05 0.0420314 0)
(-3.84048e-05 0.0420408 0)
(2.09495e-06 0.0420387 0)
(3.03075e-05 0.0420413 0)
(2.63349e-05 0.0420336 0)
(-1.33286e-05 0.0420376 0)
(-1.56032e-05 0.0420343 0)
(-3.80868e-06 0.0420395 0)
(5.19299e-06 0.042042 0)
(6.23205e-06 0.0420449 0)
(7.97845e-06 0.0420468 0)
(1.1318e-05 0.0420496 0)
(1.84526e-05 0.0420527 0)
(2.84337e-05 0.0420549 0)
(4.106e-05 0.0420558 0)
(5.56891e-05 0.0420547 0)
(7.12437e-05 0.0420511 0)
(8.65485e-05 0.0420449 0)
(0.00010134 0.0420358 0)
(0.000115736 0.0420236 0)
(0.000124809 0.0420074 0)
(0.000119818 0.0419888 0)
(0.000120548 0.0419713 0)
(9.63363e-05 0.0419499 0)
(4.01288e-05 0.0419217 0)
(-3.20166e-05 0.0419346 0)
(-8.44985e-05 0.0419567 0)
(-0.000109754 0.0419764 0)
(-0.000107874 0.0419922 0)
(-0.000111831 0.0420089 0)
(-0.000104028 0.0420238 0)
(-9.17067e-05 0.0420351 0)
(-7.87978e-05 0.0420435 0)
(-6.53391e-05 0.0420493 0)
(-5.1579e-05 0.0420528 0)
(-3.85072e-05 0.0420541 0)
(-2.7049e-05 0.0420536 0)
(-1.77899e-05 0.0420519 0)
(-1.0853e-05 0.0420494 0)
(-6.56913e-06 0.0420467 0)
(-4.87632e-06 0.0420448 0)
(-4.04366e-06 0.0420432 0)
(-4.45334e-07 0.0420408 0)
(1.03875e-05 0.0420373 0)
(1.95691e-05 0.0420344 0)
(-6.38596e-06 0.0420362 0)
(-2.42984e-05 0.042038 0)
(-1.20241e-05 0.04204 0)
(2.14624e-05 0.0420377 0)
(4.2549e-05 0.0420372 0)
(-2.14094e-05 0.0420318 0)
(-3.62466e-05 0.0420401 0)
(2.25323e-06 0.042038 0)
(2.89532e-05 0.0420411 0)
(2.48679e-05 0.0420341 0)
(-1.31781e-05 0.0420355 0)
(-1.45129e-05 0.0420348 0)
(-1.41312e-06 0.0420401 0)
(6.67842e-06 0.0420421 0)
(7.5454e-06 0.0420443 0)
(9.33774e-06 0.0420458 0)
(1.30454e-05 0.0420484 0)
(1.99425e-05 0.0420509 0)
(2.92466e-05 0.0420526 0)
(4.08751e-05 0.042053 0)
(5.41798e-05 0.0420516 0)
(6.81831e-05 0.042048 0)
(8.18402e-05 0.0420418 0)
(9.48513e-05 0.0420332 0)
(0.000107133 0.0420217 0)
(0.000114392 0.0420067 0)
(0.000109069 0.04199 0)
(0.000108927 0.0419742 0)
(8.2114e-05 0.041955 0)
(3.05958e-05 0.0419328 0)
(-2.44891e-05 0.0419442 0)
(-7.2454e-05 0.0419616 0)
(-9.91313e-05 0.0419792 0)
(-9.8121e-05 0.0419935 0)
(-0.000102349 0.0420085 0)
(-9.61027e-05 0.0420222 0)
(-8.56884e-05 0.0420328 0)
(-7.44051e-05 0.0420408 0)
(-6.2427e-05 0.0420465 0)
(-5.00464e-05 0.04205 0)
(-3.81547e-05 0.0420515 0)
(-2.75952e-05 0.0420514 0)
(-1.8949e-05 0.0420502 0)
(-1.23531e-05 0.0420482 0)
(-7.94408e-06 0.0420459 0)
(-5.88847e-06 0.0420441 0)
(-5.13535e-06 0.0420429 0)
(-2.10436e-06 0.0420411 0)
(8.1713e-06 0.0420381 0)
(1.88621e-05 0.0420338 0)
(-4.99281e-06 0.0420348 0)
(-2.29645e-05 0.0420387 0)
(-1.23423e-05 0.0420396 0)
(2.05581e-05 0.0420372 0)
(4.09215e-05 0.0420367 0)
(-2.05754e-05 0.0420327 0)
(-3.45305e-05 0.0420391 0)
(2.71854e-06 0.0420375 0)
(2.78962e-05 0.0420411 0)
(2.28068e-05 0.0420342 0)
(-1.29232e-05 0.0420338 0)
(-1.26769e-05 0.0420355 0)
(7.906e-07 0.0420404 0)
(7.80719e-06 0.042042 0)
(8.55974e-06 0.0420435 0)
(1.05504e-05 0.0420449 0)
(1.45263e-05 0.0420472 0)
(2.11162e-05 0.0420492 0)
(2.9779e-05 0.0420504 0)
(4.04746e-05 0.0420505 0)
(5.25536e-05 0.0420488 0)
(6.51371e-05 0.0420451 0)
(7.72924e-05 0.0420392 0)
(8.86885e-05 0.042031 0)
(9.91034e-05 0.0420202 0)
(0.00010487 0.0420064 0)
(9.93418e-05 0.0419913 0)
(9.84472e-05 0.0419771 0)
(7.01864e-05 0.0419599 0)
(2.30828e-05 0.0419425 0)
(-1.85689e-05 0.0419527 0)
(-6.23429e-05 0.0419663 0)
(-8.95792e-05 0.0419819 0)
(-8.92951e-05 0.0419948 0)
(-9.36927e-05 0.0420084 0)
(-8.87308e-05 0.0420209 0)
(-7.99893e-05 0.0420308 0)
(-7.01721e-05 0.0420384 0)
(-5.95415e-05 0.042044 0)
(-4.84234e-05 0.0420475 0)
(-3.76233e-05 0.0420492 0)
(-2.79076e-05 0.0420494 0)
(-1.98408e-05 0.0420486 0)
(-1.35968e-05 0.042047 0)
(-9.17294e-06 0.042045 0)
(-6.75755e-06 0.0420434 0)
(-5.95093e-06 0.0420424 0)
(-3.43753e-06 0.0420411 0)
(5.8103e-06 0.0420387 0)
(1.74694e-05 0.0420338 0)
(-3.31918e-06 0.0420334 0)
(-2.12767e-05 0.0420391 0)
(-1.29576e-05 0.0420393 0)
(1.96228e-05 0.0420369 0)
(3.97249e-05 0.0420363 0)
(-1.98567e-05 0.0420338 0)
(-3.3229e-05 0.0420385 0)
(3.50218e-06 0.0420374 0)
(2.68689e-05 0.0420413 0)
(2.02543e-05 0.0420338 0)
(-1.23707e-05 0.0420327 0)
(-1.03448e-05 0.0420362 0)
(2.71325e-06 0.0420405 0)
(8.64249e-06 0.0420418 0)
(9.35644e-06 0.0420428 0)
(1.1636e-05 0.042044 0)
(1.5764e-05 0.042046 0)
(2.20099e-05 0.0420476 0)
(3.00701e-05 0.0420484 0)
(3.98929e-05 0.0420481 0)
(5.08407e-05 0.0420463 0)
(6.21278e-05 0.0420426 0)
(7.29188e-05 0.0420369 0)
(8.28581e-05 0.0420291 0)
(9.16333e-05 0.042019 0)
(9.61763e-05 0.0420063 0)
(9.0539e-05 0.0419927 0)
(8.90283e-05 0.0419799 0)
(6.01735e-05 0.0419647 0)
(1.716e-05 0.041951 0)
(-1.39157e-05 0.0419601 0)
(-5.38434e-05 0.0419708 0)
(-8.10084e-05 0.0419846 0)
(-8.13072e-05 0.0419962 0)
(-8.57971e-05 0.0420085 0)
(-8.1894e-05 0.0420199 0)
(-7.46126e-05 0.0420292 0)
(-6.6111e-05 0.0420364 0)
(-5.67021e-05 0.0420417 0)
(-4.67364e-05 0.0420452 0)
(-3.69432e-05 0.0420471 0)
(-2.80183e-05 0.0420476 0)
(-2.04999e-05 0.042047 0)
(-1.46033e-05 0.0420458 0)
(-1.02487e-05 0.0420442 0)
(-7.53001e-06 0.0420427 0)
(-6.55029e-06 0.0420419 0)
(-4.4882e-06 0.042041 0)
(3.49834e-06 0.042039 0)
(1.55109e-05 0.0420341 0)
(-1.63188e-06 0.0420322 0)
(-1.92043e-05 0.042039 0)
(-1.37205e-05 0.0420393 0)
(1.86787e-05 0.0420371 0)
(3.89758e-05 0.0420363 0)
(-1.91999e-05 0.042035 0)
(-3.22782e-05 0.0420384 0)
(4.46933e-06 0.0420376 0)
(2.56283e-05 0.0420414 0)
(1.73828e-05 0.0420331 0)
(-1.14249e-05 0.0420322 0)
(-7.74753e-06 0.0420367 0)
(4.33453e-06 0.0420404 0)
(9.23914e-06 0.0420413 0)
(1.00062e-05 0.042042 0)
(1.25976e-05 0.0420432 0)
(1.6769e-05 0.0420448 0)
(2.2659e-05 0.042046 0)
(3.0154e-05 0.0420465 0)
(3.91609e-05 0.042046 0)
(4.90675e-05 0.042044 0)
(5.91737e-05 0.0420403 0)
(6.87291e-05 0.0420348 0)
(7.7361e-05 0.0420274 0)
(8.47034e-05 0.042018 0)
(8.82449e-05 0.0420064 0)
(8.25713e-05 0.0419942 0)
(8.05828e-05 0.0419826 0)
(5.1759e-05 0.0419691 0)
(1.24921e-05 0.0419584 0)
(-1.0263e-05 0.0419666 0)
(-4.66879e-05 0.0419749 0)
(-7.33299e-05 0.0419872 0)
(-7.40766e-05 0.0419977 0)
(-7.85995e-05 0.0420087 0)
(-7.5569e-05 0.0420192 0)
(-6.95568e-05 0.0420278 0)
(-6.22297e-05 0.0420345 0)
(-5.39252e-05 0.0420396 0)
(-4.50086e-05 0.0420431 0)
(-3.61414e-05 0.0420451 0)
(-2.79555e-05 0.0420458 0)
(-2.09573e-05 0.0420456 0)
(-1.53954e-05 0.0420447 0)
(-1.11674e-05 0.0420434 0)
(-8.23027e-06 0.042042 0)
(-6.99154e-06 0.0420413 0)
(-5.30136e-06 0.0420408 0)
(1.36034e-06 0.0420391 0)
(1.31489e-05 0.0420345 0)
(-1.59689e-07 0.0420313 0)
(-1.67644e-05 0.0420385 0)
(-1.42061e-05 0.0420394 0)
(1.77714e-05 0.0420377 0)
(3.84058e-05 0.0420367 0)
(-1.85553e-05 0.0420361 0)
(-3.15845e-05 0.0420388 0)
(5.39029e-06 0.042038 0)
(2.4007e-05 0.0420412 0)
(1.44064e-05 0.0420322 0)
(-1.00793e-05 0.042032 0)
(-5.08075e-06 0.042037 0)
(5.67067e-06 0.0420403 0)
(9.6465e-06 0.0420408 0)
(1.05619e-05 0.0420413 0)
(1.34314e-05 0.0420424 0)
(1.75578e-05 0.0420437 0)
(2.30966e-05 0.0420446 0)
(3.00606e-05 0.0420448 0)
(3.83061e-05 0.042044 0)
(4.72571e-05 0.0420419 0)
(5.629e-05 0.0420383 0)
(6.47297e-05 0.042033 0)
(7.21937e-05 0.0420261 0)
(7.82894e-05 0.0420173 0)
(8.10123e-05 0.0420067 0)
(7.53578e-05 0.0419957 0)
(7.30226e-05 0.0419852 0)
(4.46797e-05 0.0419733 0)
(8.81682e-06 0.0419649 0)
(-7.40145e-06 0.0419723 0)
(-4.06536e-05 0.0419788 0)
(-6.64568e-05 0.0419896 0)
(-6.753e-05 0.0419991 0)
(-7.20405e-05 0.0420091 0)
(-6.97295e-05 0.0420186 0)
(-6.48163e-05 0.0420266 0)
(-5.85331e-05 0.0420329 0)