/*--------------------------------*- C++ -*----------------------------------*\
| =========                 |                                                 |
| \\      /  F ield         | OpenFOAM: The Open Source CFD Toolbox           |
|  \\    /   O peration     | Version:  v1612+                                |
|   \\  /    A nd           | Web:      www.OpenFOAM.com                      |
|    \\/     M anipulation  |                                                 |
\*---------------------------------------------------------------------------*/
FoamFile
{
    version     2.0;
    format      ascii;
    class       volVectorField;
    location    "290.1";
    object      Us;
}
// * * * * * * * * * * * * * * * * * * * * * * * * * * * * * * * * * * * * * //

dimensions      [0 1 -1 0 0 0 0];

internalField   nonuniform List<vector> 
40000
(
(0.00715579 -0.0250788 0)
(0.0132429 -0.0230238 0)
(0.011544 -0.0228884 0)
(0.0102583 -0.0228368 0)
(0.00913816 -0.0230267 0)
(0.00800409 -0.0231807 0)
(0.00696702 -0.0232552 0)
(0.0060415 -0.0232878 0)
(0.00512309 -0.023298 0)
(0.0041117 -0.0232981 0)
(0.00297438 -0.0233009 0)
(0.0017685 -0.023317 0)
(0.000662452 -0.0233432 0)
(-0.000132607 -0.0233455 0)
(-0.000526748 -0.0233226 0)
(-0.00058862 -0.0233085 0)
(-0.000478632 -0.0233052 0)
(-0.000411918 -0.0232979 0)
(-0.000291982 -0.0233039 0)
(2.4164e-05 -0.0233101 0)
(0.000343996 -0.0233115 0)
(7.43323e-05 -0.0232949 0)
(-0.00102023 -0.0232479 0)
(-0.00199422 -0.0232471 0)
(-0.00164968 -0.0233193 0)
(0.000365302 -0.0233718 0)
(0.00199556 -0.023285 0)
(0.00161274 -0.0232345 0)
(0.000394964 -0.0232698 0)
(-0.000388276 -0.0233031 0)
(-0.000232783 -0.0233141 0)
(0.000201656 -0.0233074 0)
(0.000379569 -0.0232974 0)
(0.000437338 -0.0233035 0)
(0.000561395 -0.0233085 0)
(0.000575237 -0.023319 0)
(0.000271259 -0.0233455 0)
(-0.000472249 -0.0233514 0)
(-0.00161714 -0.0233196 0)
(-0.00293595 -0.0232948 0)
(-0.00419389 -0.0232883 0)
(-0.005286 -0.0232896 0)
(-0.00622583 -0.0232834 0)
(-0.00711295 -0.0232559 0)
(-0.00806636 -0.0231849 0)
(-0.00910303 -0.023032 0)
(-0.0101465 -0.0228379 0)
(-0.0114047 -0.022881 0)
(-0.0131428 -0.023017 0)
(-0.00711202 -0.0250744 0)
(0.00516529 -0.0247196 0)
(0.0112264 -0.0242709 0)
(0.0121443 -0.0238476 0)
(0.0133118 -0.023292 0)
(0.0139512 -0.023152 0)
(0.0140284 -0.0231283 0)
(0.0137585 -0.0231111 0)
(0.0132455 -0.0230905 0)
(0.0124817 -0.0230564 0)
(0.0113998 -0.0230033 0)
(0.00990277 -0.0229418 0)
(0.00790283 -0.022901 0)
(0.00542593 -0.0229222 0)
(0.00274709 -0.0230277 0)
(0.000510693 -0.0231819 0)
(-0.000623415 -0.0232854 0)
(-0.000894574 -0.0233194 0)
(-0.000887815 -0.0233219 0)
(-0.000653364 -0.0233724 0)
(-0.000126944 -0.0234088 0)
(0.000391887 -0.0232985 0)
(-0.000697484 -0.0230565 0)
(-0.00264611 -0.0229737 0)
(-0.00332221 -0.0232382 0)
(-0.00215537 -0.0236829 0)
(0.000492341 -0.0238895 0)
(0.00277548 -0.0235066 0)
(0.00316728 -0.0230818 0)
(0.00168568 -0.022966 0)
(-0.000203782 -0.0231786 0)
(-0.000252239 -0.023395 0)
(0.000478661 -0.0234054 0)
(0.000823362 -0.0233309 0)
(0.000883689 -0.0233232 0)
(0.000750414 -0.0233029 0)
(-0.00010946 -0.0232165 0)
(-0.00221731 -0.0230507 0)
(-0.00502528 -0.0229132 0)
(-0.00772412 -0.0228666 0)
(-0.00991712 -0.022903 0)
(-0.0115214 -0.0229764 0)
(-0.0126259 -0.0230477 0)
(-0.0133514 -0.0230989 0)
(-0.0137929 -0.0231316 0)
(-0.0139856 -0.0231521 0)
(-0.0138516 -0.0231699 0)
(-0.0131893 -0.0232948 0)
(-0.0120288 -0.023836 0)
(-0.0111352 -0.0242593 0)
(-0.00512458 -0.024707 0)
(0.00389741 -0.0273392 0)
(0.00934996 -0.0243509 0)
(0.0104902 -0.0236546 0)
(0.0117101 -0.0232225 0)
(0.0128475 -0.0231601 0)
(0.0136747 -0.0231538 0)
(0.0142244 -0.0231151 0)
(0.0145366 -0.0230501 0)
(0.0146004 -0.022955 0)
(0.0143602 -0.0228198 0)
(0.0136998 -0.0226462 0)
(0.0124173 -0.0224615 0)
(0.0102626 -0.0223342 0)
(0.0071364 -0.0223711 0)
(0.0035245 -0.0226441 0)
(0.00056667 -0.0230236 0)
(-0.000774949 -0.0232567 0)
(-0.0010914 -0.0233361 0)
(-0.00088541 -0.0234577 0)
(-0.000354057 -0.02352 0)
(5.68165e-05 -0.0232018 0)
(-0.00158602 -0.0227173 0)
(-0.00346425 -0.0227387 0)
(-0.0035177 -0.0233341 0)
(-0.00215301 -0.0240823 0)
(0.000536194 -0.0244122 0)
(0.00285706 -0.0237898 0)
(0.00368199 -0.0230242 0)
(0.0026444 -0.0226241 0)
(0.000396645 -0.0229372 0)
(-2.48832e-05 -0.0234507 0)
(0.000697299 -0.0235257 0)
(0.00104727 -0.023368 0)
(0.000915521 -0.0232925 0)
(-4.18817e-05 -0.0231073 0)
(-0.00272368 -0.0227192 0)
(-0.00645735 -0.0223706 0)
(-0.00990816 -0.0222715 0)
(-0.0123293 -0.0223822 0)
(-0.013742 -0.0225844 0)
(-0.0144268 -0.0227884 0)
(-0.0146367 -0.0229525 0)
(-0.0145237 -0.0230687 0)
(-0.0141642 -0.0231454 0)
(-0.0135809 -0.0231843 0)
(-0.0127352 -0.0231785 0)
(-0.0115911 -0.0232249 0)
(-0.0103715 -0.0236411 0)
(-0.00926226 -0.0243249 0)
(-0.00385902 -0.0273132 0)
(0.00299361 -0.028258 0)
(0.00772463 -0.024877 0)
(0.00904008 -0.0242377 0)
(0.0102692 -0.0237146 0)
(0.0113812 -0.0234944 0)
(0.0122451 -0.0233898 0)
(0.0129153 -0.0232834 0)
(0.013457 -0.0231632 0)
(0.0138837 -0.0230164 0)
(0.0141798 -0.0228209 0)
(0.0142855 -0.0225587 0)
(0.0140337 -0.0222313 0)
(0.0130669 -0.0218963 0)
(0.0108731 -0.0217091 0)
(0.00729316 -0.0218805 0)
(0.00316907 -0.0224152 0)
(0.000133189 -0.022989 0)
(-0.00102061 -0.0232891 0)
(-0.00104492 -0.0235256 0)
(-0.000655541 -0.0235983 0)
(-0.000486881 -0.0230531 0)
(-0.00225187 -0.0223804 0)
(-0.00371001 -0.0225831 0)
(-0.00338862 -0.0234824 0)
(-0.00207248 -0.0244819 0)
(0.000563126 -0.0249322 0)
(0.00284083 -0.024094 0)
(0.00372764 -0.0230347 0)
(0.00316505 -0.0223262 0)
(0.00105218 -0.0226593 0)
(0.000375772 -0.0234541 0)
(0.000916118 -0.0236249 0)
(0.00108266 -0.023364 0)
(0.000365462 -0.0231065 0)
(-0.00221271 -0.0225658 0)
(-0.00635813 -0.02194 0)
(-0.0103292 -0.0216427 0)
(-0.0129082 -0.0217718 0)
(-0.0140591 -0.0221201 0)
(-0.0143472 -0.0224893 0)
(-0.014221 -0.0227934 0)
(-0.0138934 -0.0230208 0)
(-0.0134368 -0.0231884 0)
(-0.0128679 -0.0233187 0)
(-0.0121718 -0.0234245 0)
(-0.0112839 -0.0235162 0)
(-0.0101526 -0.0237184 0)
(-0.00891923 -0.0242236 0)
(-0.00763773 -0.0248485 0)
(-0.00295705 -0.0282183 0)
(0.00237511 -0.0293374 0)
(0.00654534 -0.0253718 0)
(0.00794969 -0.0244367 0)
(0.00916058 -0.0238109 0)
(0.0102457 -0.023561 0)
(0.0111013 -0.0234662 0)
(0.0117611 -0.0233651 0)
(0.0122895 -0.0232416 0)
(0.0127235 -0.0230888 0)
(0.0130905 -0.0228849 0)
(0.0134171 -0.0226002 0)
(0.013685 -0.0222063 0)
(0.0137012 -0.0217092 0)
(0.0128801 -0.0212488 0)
(0.0104353 -0.0211391 0)
(0.00636802 -0.0215963 0)
(0.00210803 -0.0224151 0)
(-0.000511402 -0.02309 0)
(-0.00109555 -0.0235348 0)
(-0.000989245 -0.0236269 0)
(-0.0010018 -0.0228851 0)
(-0.00262151 -0.0220912 0)
(-0.00363808 -0.0224973 0)
(-0.0031852 -0.0236451 0)
(-0.00195376 -0.0248662 0)
(0.000579035 -0.0254377 0)
(0.00278995 -0.0243887 0)
(0.00359743 -0.0230797 0)
(0.0033451 -0.0220915 0)
(0.00155301 -0.0223943 0)
(0.000806569 -0.0234166 0)
(0.00108908 -0.0236703 0)
(0.000833438 -0.0232455 0)
(-0.00114138 -0.0226327 0)
(-0.00521853 -0.0217593 0)
(-0.00965787 -0.0211278 0)
(-0.0126274 -0.0210983 0)
(-0.0137453 -0.0215365 0)
(-0.0137903 -0.0220826 0)
(-0.0135082 -0.022533 0)
(-0.0131618 -0.022862 0)
(-0.0127751 -0.023098 0)
(-0.0123156 -0.0232724 0)
(-0.0117531 -0.0234064 0)
(-0.011053 -0.0235081 0)
(-0.0101593 -0.0235923 0)
(-0.00904714 -0.0238174 0)
(-0.00783006 -0.024418 0)
(-0.00646046 -0.0253344 0)
(-0.00234052 -0.0292859 0)
(0.0019024 -0.0301388 0)
(0.00555801 -0.0258129 0)
(0.00703763 -0.0247491 0)
(0.00827918 -0.0241092 0)
(0.00939043 -0.0238156 0)
(0.0102706 -0.0236634 0)
(0.0109407 -0.0235157 0)
(0.0114587 -0.0233536 0)
(0.011859 -0.0231738 0)
(0.0121694 -0.0229552 0)
(0.012437 -0.0226681 0)
(0.0127311 -0.0222716 0)
(0.0130947 -0.0217182 0)
(0.0132549 -0.0210557 0)
(0.0122609 -0.0206001 0)
(0.00922466 -0.0207699 0)
(0.00473117 -0.0216115 0)
(0.000745122 -0.0226361 0)
(-0.000909801 -0.0234276 0)
(-0.00125219 -0.0236073 0)
(-0.00135396 -0.0227305 0)
(-0.00272739 -0.0218616 0)
(-0.00339847 -0.0224568 0)
(-0.00294936 -0.023804 0)
(-0.00180709 -0.0252314 0)
(0.000584164 -0.0259225 0)
(0.00269714 -0.0246668 0)
(0.00339354 -0.0231367 0)
(0.0032933 -0.021912 0)
(0.00183056 -0.0221663 0)
(0.00113546 -0.0233581 0)
(0.00109685 -0.0236277 0)
(1.56712e-05 -0.0229084 0)
(-0.00346485 -0.0218878 0)
(-0.0081661 -0.0208784 0)
(-0.011817 -0.0204839 0)
(-0.0132905 -0.0208299 0)
(-0.0132616 -0.0215226 0)
(-0.0128801 -0.0221491 0)
(-0.0125721 -0.0226043 0)
(-0.0122953 -0.0229355 0)
(-0.0119663 -0.0231877 0)
(-0.0115332 -0.0233913 0)
(-0.0109704 -0.0235647 0)
(-0.0102504 -0.0237117 0)
(-0.00932301 -0.0238512 0)
(-0.00817657 -0.0241194 0)
(-0.00692334 -0.0247293 0)
(-0.00547576 -0.0257672 0)
(-0.00186962 -0.0300756 0)
(0.00154089 -0.0308351 0)
(0.00476491 -0.0262553 0)
(0.00631827 -0.025051 0)
(0.00759905 -0.0243489 0)
(0.00873807 -0.0239915 0)
(0.00964215 -0.0237946 0)
(0.0103271 -0.0236187 0)
(0.0108486 -0.0234335 0)
(0.01124 -0.023235 0)
(0.0115213 -0.0230035 0)
(0.0117236 -0.0227139 0)
(0.0119075 -0.0223329 0)
(0.0121955 -0.0218004 0)
(0.0126833 -0.021067 0)
(0.0127916 -0.0203301 0)
(0.0111766 -0.0201018 0)
(0.00735396 -0.0207314 0)
(0.00270235 -0.0219386 0)
(-0.00032149 -0.0231289 0)
(-0.00135475 -0.0235301 0)
(-0.00150211 -0.022602 0)
(-0.00262695 -0.0216847 0)
(-0.00306517 -0.0224406 0)
(-0.00268522 -0.0239494 0)
(-0.00164219 -0.025573 0)
(0.000577613 -0.0263801 0)
(0.00256528 -0.0249235 0)
(0.00313981 -0.023192 0)
(0.00308509 -0.0217701 0)
(0.00188794 -0.0219797 0)
(0.00130511 -0.0232733 0)
(0.000794644 -0.0234433 0)
(-0.00152484 -0.0223087 0)
(-0.00603962 -0.0210006 0)
(-0.0104154 -0.0201021 0)
(-0.0127082 -0.0201042 0)
(-0.0129031 -0.0207953 0)
(-0.0124072 -0.0216037 0)
(-0.0120942 -0.0222142 0)
(-0.0119135 -0.0226513 0)
(-0.011706 -0.0229863 0)
(-0.0114032 -0.0232543 0)
(-0.0109734 -0.0234794 0)
(-0.0104 -0.0236796 0)
(-0.00965612 -0.0238558 0)
(-0.00869517 -0.0240377 0)
(-0.00751211 -0.0243642 0)
(-0.00621306 -0.02503 0)
(-0.00468667 -0.0262014 0)
(-0.00150997 -0.0307607 0)
(0.00125828 -0.0314218 0)
(0.00411865 -0.0266769 0)
(0.00573749 -0.0253548 0)
(0.00705826 -0.0246069 0)
(0.00822475 -0.0242006 0)
(0.00915278 -0.02396 0)
(0.0098542 -0.0237491 0)
(0.0103827 -0.0235332 0)
(0.0107737 -0.023306 0)
(0.0110459 -0.0230516 0)
(0.0112211 -0.0227473 0)
(0.0113366 -0.0223681 0)
(0.011472 -0.0218705 0)
(0.0118524 -0.021166 0)
(0.012453 -0.0202873 0)
(0.0121041 -0.0196768 0)
(0.00947987 -0.0199256 0)
(0.00495824 -0.0210883 0)
(0.000869309 -0.0225942 0)
(-0.00122082 -0.0233634 0)
(-0.00146115 -0.0224951 0)
(-0.00237398 -0.0215474 0)
(-0.00267393 -0.0224339 0)
(-0.00239792 -0.0240756 0)
(-0.0014661 -0.025887 0)
(0.000558715 -0.0268052 0)
(0.00239959 -0.0251549 0)
(0.00283617 -0.0232366 0)
(0.00276561 -0.0216495 0)
(0.00175686 -0.0218296 0)
(0.00130216 -0.023137 0)
(1.4357e-05 -0.023048 0)
(-0.0035466 -0.0215134 0)
(-0.0083414 -0.0201196 0)
(-0.0117264 -0.019542 0)
(-0.0126452 -0.0199751 0)
(-0.0121411 -0.0208803 0)
(-0.0117029 -0.0216805 0)
(-0.0115728 -0.0222495 0)
(-0.0114698 -0.0226842 0)
(-0.0112891 -0.0230372 0)
(-0.0109927 -0.0233316 0)
(-0.0105588 -0.0235879 0)
(-0.00997234 -0.0238208 0)
(-0.00920447 -0.0240333 0)
(-0.00821099 -0.0242578 0)
(-0.00699148 -0.0246294 0)
(-0.0056446 -0.0253344 0)
(-0.00404572 -0.0266156 0)
(-0.00122926 -0.0313369 0)
(0.00103777 -0.0319284 0)
(0.00359676 -0.0270877 0)
(0.00526594 -0.0256627 0)
(0.00661931 -0.0248713 0)
(0.00780513 -0.0244127 0)
(0.0087503 -0.0241231 0)
(0.00946429 -0.0238737 0)
(0.00999949 -0.0236257 0)
(0.010393 -0.0233709 0)
(0.0106641 -0.0230946 0)
(0.0108322 -0.0227738 0)
(0.0109252 -0.0223861 0)
(0.0109799 -0.0219061 0)
(0.0111496 -0.0212627 0)
(0.0117445 -0.0203742 0)
(0.0121968 -0.0194942 0)
(0.0108753 -0.0192988 0)
(0.00709914 -0.0202071 0)
(0.00252868 -0.0218613 0)
(-0.000751272 -0.0230539 0)
(-0.001273 -0.0223942 0)
(-0.00201127 -0.0214375 0)
(-0.00224348 -0.0224263 0)
(-0.00209553 -0.0241783 0)
(-0.00128432 -0.02617 0)
(0.000527237 -0.0271939 0)
(0.0022041 -0.0253563 0)
(0.00247723 -0.0232647 0)
(0.00236101 -0.0215385 0)
(0.0014762 -0.0217067 0)
(0.0011082 -0.022917 0)
(-0.00129348 -0.0224393 0)
(-0.0056644 -0.0206213 0)
(-0.0100575 -0.0193656 0)
(-0.0121786 -0.019228 0)
(-0.0120849 -0.020013 0)
(-0.0114441 -0.0209826 0)
(-0.0112441 -0.0217193 0)
(-0.0112193 -0.022264 0)
(-0.0111391 -0.02271 0)
(-0.0109645 -0.0230833 0)
(-0.0106665 -0.0234037 0)
(-0.0102263 -0.0236914 0)
(-0.00962819 -0.0239588 0)
(-0.00884131 -0.0242106 0)
(-0.00782295 -0.0244827 0)
(-0.00657551 -0.0249027 0)
(-0.00518774 -0.0256445 0)
(-0.00353038 -0.0270199 0)
(-0.00101073 -0.0318337 0)
(0.000865373 -0.0323684 0)
(0.00317424 -0.027487 0)
(0.00487475 -0.0259727 0)
(0.00625013 -0.0251397 0)
(0.00744584 -0.0246291 0)
(0.00840045 -0.0242901 0)
(0.00912213 -0.0240016 0)
(0.00966204 -0.0237214 0)
(0.0100585 -0.0234393 0)
(0.0103323 -0.0231393 0)
(0.0105016 -0.0227999 0)
(0.0105908 -0.0223989 0)
(0.0106271 -0.0219183 0)
(0.010663 -0.0213217 0)
(0.0110287 -0.0204975 0)
(0.0117747 -0.0194933 0)
(0.0115376 -0.0188942 0)
(0.00884061 -0.0194042 0)
(0.00437731 -0.0210012 0)
(0.000160292 -0.0225818 0)
(-0.000976216 -0.0222639 0)
(-0.00157196 -0.0213458 0)
(-0.00178485 -0.0224096 0)
(-0.00178598 -0.0242545 0)
(-0.00110129 -0.0264193 0)
(0.000483412 -0.0275425 0)
(0.00198207 -0.0255231 0)
(0.0020568 -0.0232717 0)
(0.00188746 -0.0214303 0)
(0.00108782 -0.021598 0)
(0.000641471 -0.0225761 0)
(-0.00292794 -0.0216567 0)
(-0.00756003 -0.0197417 0)
(-0.0110947 -0.0188073 0)
(-0.0120223 -0.0191234 0)
(-0.0114109 -0.0201212 0)
(-0.0109592 -0.021051 0)
(-0.0109433 -0.0217282 0)
(-0.010943 -0.0222721 0)
(-0.0108649 -0.0227354 0)
(-0.0106879 -0.0231314 0)
(-0.0103848 -0.0234794 0)
(-0.00993863 -0.0237985 0)
(-0.00933158 -0.024101 0)
(-0.00853153 -0.0243933 0)
(-0.00749678 -0.0247137 0)
(-0.00623124 -0.0251819 0)
(-0.00481291 -0.0259585 0)
(-0.0031154 -0.027414 0)
(-0.000840403 -0.0322647 0)
(0.000730559 -0.0327551 0)
(0.00283139 -0.0278747 0)
(0.0045443 -0.0262842 0)
(0.00592998 -0.0254102 0)
(0.00712634 -0.0248479 0)
(0.00808281 -0.024459 0)
(0.00880715 -0.0241305 0)
(0.00934917 -0.0238179 0)
(0.00974798 -0.0235079 0)
(0.0100256 -0.0231845 0)
(0.0102002 -0.0228263 0)
(0.0102928 -0.0224116 0)
(0.0103332 -0.0219223 0)
(0.0103299 -0.0213459 0)
(0.0104699 -0.0206004 0)
(0.0111453 -0.0195933 0)
(0.0116106 -0.0186999 0)
(0.0100517 -0.0187537 0)
(0.00615626 -0.0201051 0)
(0.00146352 -0.0219433 0)
(-0.000605412 -0.0220681 0)
(-0.00108452 -0.0212671 0)
(-0.00130449 -0.0223781 0)
(-0.00147567 -0.0243018 0)
(-0.000920523 -0.026633 0)
(0.00042801 -0.0278483 0)
(0.00173678 -0.0256496 0)
(0.00156997 -0.023255 0)
(0.00135828 -0.0213225 0)
(0.000623875 -0.0214723 0)
(-0.0001717 -0.0221091 0)
(-0.00464445 -0.0207661 0)
(-0.00904503 -0.0189621 0)
(-0.0115201 -0.01846 0)
(-0.0115432 -0.0191577 0)
(-0.0108414 -0.0202291 0)
(-0.0106521 -0.0210787 0)
(-0.0107087 -0.0217245 0)
(-0.0107 -0.0222802 0)
(-0.0106178 -0.0227615 0)
(-0.0104339 -0.0231805 0)
(-0.010125 -0.0235562 0)
(-0.00967396 -0.0239071 0)
(-0.00906141 -0.0242452 0)
(-0.00825404 -0.0245791 0)
(-0.00721117 -0.0249487 0)
(-0.00593723 -0.0254648 0)
(-0.00449996 -0.0262755 0)
(-0.00278092 -0.0277983 0)
(-0.000707757 -0.0326435 0)
(0.000624954 -0.0330986 0)
(0.00255142 -0.0282502 0)
(0.00425982 -0.0265961 0)
(0.00564482 -0.0256806 0)
(0.00683376 -0.0250674 0)
(0.00778536 -0.0246286 0)
(0.00850778 -0.0242599 0)
(0.00904926 -0.0239148 0)
(0.00944926 -0.0235773 0)
(0.00973082 -0.023231 0)
(0.00991231 -0.0228541 0)
(0.0100126 -0.0224258 0)
(0.0100607 -0.0219264 0)
(0.0100673 -0.0213513 0)
(0.0100805 -0.0206646 0)
(0.0105237 -0.0197241 0)
(0.0112971 -0.0186686 0)
(0.0107284 -0.0182892 0)
(0.00767965 -0.0192581 0)
(0.00297889 -0.0211736 0)
(-0.000108949 -0.021778 0)
(-0.000573946 -0.0211933 0)
(-0.000804464 -0.0223276 0)
(-0.00116943 -0.0243175 0)
(-0.000744594 -0.02681 0)
(0.000362463 -0.0281092 0)
(0.00147214 -0.0257286 0)
(0.0010156 -0.0232109 0)
(0.000791391 -0.0212185 0)
(0.000142113 -0.0213077 0)
(-0.00133165 -0.0214979 0)
(-0.00625022 -0.0198504 0)
(-0.0100535 -0.018336 0)
(-0.0114865 -0.0182975 0)
(-0.0109749 -0.0192584 0)
(-0.0104386 -0.0203035 0)
(-0.0104383 -0.0210795 0)
(-0.0104933 -0.0217195 0)
(-0.0104719 -0.0222903 0)
(-0.0103816 -0.0227893 0)
(-0.0101889 -0.0232312 0)
(-0.00987444 -0.0236343 0)
(-0.00942031 -0.0240167 0)
(-0.00880561 -0.0243907 0)
(-0.00799625 -0.0247668 0)
(-0.00695265 -0.0251857 0)
(-0.00567888 -0.0257495 0)
(-0.00423377 -0.0265946 0)
(-0.00250997 -0.0281721 0)
(-0.0006044 -0.0329801 0)
(0.000542074 -0.0334071 0)
(0.00232115 -0.0286131 0)
(0.00401096 -0.0269067 0)
(0.00538554 -0.0259493 0)
(0.00656014 -0.0252859 0)
(0.00750117 -0.024798 0)
(0.0082177 -0.0243891 0)
(0.00875627 -0.0240117 0)
(0.00915617 -0.0236475 0)
(0.00944121 -0.0232787 0)
(0.00962983 -0.0228837 0)
(0.00974035 -0.0224417 0)
(0.00979682 -0.0219334 0)
(0.00982448 -0.0213515 0)
(0.00980429 -0.020695 0)
(0.0100148 -0.0198414 0)
(0.0107924 -0.0187405 0)
(0.0109497 -0.0180087 0)
(0.00884731 -0.0185232 0)
(0.0045156 -0.0203286 0)
(0.00060939 -0.0213704 0)
(-7.88547e-05 -0.0211136 0)
(-0.000284127 -0.0222574 0)
(-0.000870697 -0.0242981 0)
(-0.000575247 -0.0269493 0)
(0.000289011 -0.0283235 0)
(0.00119367 -0.025753 0)
(0.000403074 -0.0231341 0)
(0.000214482 -0.0211215 0)
(-0.000370312 -0.021071 0)
(-0.00270405 -0.0207741 0)
(-0.0076147 -0.0189862 0)
(-0.0106098 -0.0178835 0)
(-0.0111691 -0.0182715 0)
(-0.0104614 -0.0193702 0)
(-0.0101719 -0.0203398 0)
(-0.0102538 -0.0210692 0)
(-0.0102812 -0.0217179 0)
(-0.0102491 -0.0223027 0)
(-0.0101473 -0.022819 0)
(-0.00994584 -0.0232835 0)
(-0.00962663 -0.0237135 0)
(-0.00917115 -0.0241269 0)
(-0.00855733 -0.0245366 0)
(-0.00775065 -0.0249551 0)
(-0.00671272 -0.0254231 0)
(-0.00544659 -0.026034 0)
(-0.0040036 -0.0269142 0)
(-0.00228916 -0.028535 0)
(-0.000523838 -0.0332828 0)
(0.00047687 -0.033687 0)
(0.00213016 -0.0289634 0)
(0.00379019 -0.0272144 0)
(0.00514603 -0.0262148 0)
(0.00630053 -0.0255022 0)
(0.00722628 -0.024966 0)
(0.00793362 -0.0245175 0)
(0.00846731 -0.0241085 0)
(0.00886598 -0.0237182 0)
(0.00915383 -0.0233277 0)
(0.0093492 -0.0229153 0)
(0.00947066 -0.0224599 0)
(0.00953742 -0.0219435 0)
(0.00958189 -0.0213537 0)
(0.00957971 -0.0207053 0)
(0.00963605 -0.0199263 0)
(0.0102463 -0.0188606 0)
(0.0108346 -0.017885 0)
(0.00963336 -0.0179365 0)
(0.00593276 -0.0194708 0)
(0.00158017 -0.0208454 0)
(0.00037548 -0.0210082 0)
(0.000233751 -0.0221662 0)
(-0.000581609 -0.0242416 0)
(-0.000413661 -0.0270501 0)
(0.000210614 -0.0284904 0)
(0.000908785 -0.0257217 0)
(-0.00020964 -0.0230219 0)
(-0.000322505 -0.0210406 0)
(-0.000998017 -0.0207325 0)
(-0.00412365 -0.0199846 0)
(-0.00867023 -0.0182297 0)
(-0.0107921 -0.0175973 0)
(-0.0107224 -0.018329 0)
(-0.0100606 -0.0194616 0)
(-0.00998202 -0.0203475 0)
(-0.0100681 -0.0210583 0)
(-0.0100685 -0.0217204 0)
(-0.0100255 -0.0223175 0)
(-0.0099109 -0.0228512 0)
(-0.00970128 -0.0233374 0)
(-0.00937831 -0.0237935 0)
(-0.00892312 -0.0242372 0)
(-0.00831279 -0.0246823 0)
(-0.0075128 -0.0251429 0)
(-0.00648597 -0.0256595 0)
(-0.00523385 -0.0263169 0)
(-0.00380164 -0.0272327 0)
(-0.00210789 -0.0288872 0)
(-0.000461004 -0.0335581 0)
(0.000425412 -0.0339434 0)
(0.00197028 -0.0293012 0)
(0.00359194 -0.0275177 0)
(0.00492217 -0.0264759 0)
(0.00605184 -0.0257151 0)
(0.00695855 -0.0251321 0)
(0.00765411 -0.0246446 0)
(0.00818135 -0.0242047 0)
(0.00857786 -0.0237892 0)
(0.00886785 -0.023378 0)
(0.00906943 -0.0229488 0)
(0.00920121 -0.0224805 0)
(0.00928009 -0.0219561 0)
(0.00933613 -0.0213605 0)
(0.00936683 -0.0207079 0)
(0.00935762 -0.0199783 0)
(0.00974972 -0.018988 0)
(0.0105077 -0.0178787 0)
(0.0100648 -0.0175096 0)
(0.00713941 -0.0186605 0)
(0.00272618 -0.0202292 0)
(0.000837005 -0.0208382 0)
(0.000691929 -0.0220588 0)
(-0.000305732 -0.0241505 0)
(-0.000260487 -0.0271125 0)
(0.000130296 -0.02861 0)
(0.000626253 -0.0256426 0)
(-0.000719053 -0.022887 0)
(-0.000808626 -0.0209464 0)
(-0.00178672 -0.0203002 0)
(-0.00546002 -0.0191773 0)
(-0.0094027 -0.0176123 0)
(-0.0107012 -0.0174519 0)
(-0.0102586 -0.0184242 0)
(-0.00977005 -0.0195212 0)
(-0.00981933 -0.02034 0)
(-0.00987253 -0.021052 0)
(-0.00985382 -0.0217265 0)
(-0.00979807 -0.022335 0)
(-0.00967089 -0.0228856 0)
(-0.00945397 -0.0233928 0)
(-0.00912825 -0.0238739 0)
(-0.00867479 -0.0243473 0)
(-0.00807011 -0.0248271 0)
(-0.00728011 -0.0253294 0)
(-0.00626887 -0.0258937 0)
(-0.00503617 -0.0265969 0)
(-0.00362209 -0.0275484 0)
(-0.00195784 -0.0292286 0)
(-0.000411951 -0.033811 0)
(0.000384624 -0.0341803 0)
(0.00183505 -0.0296267 0)
(0.00341203 -0.0278151 0)
(0.00471109 -0.0267316 0)
(0.00581218 -0.025924 0)
(0.00669695 -0.0252954 0)
(0.00737878 -0.0247701 0)
(0.00789847 -0.0243003 0)
(0.00829214 -0.0238604 0)
(0.00858365 -0.0234292 0)
(0.00879083 -0.022984 0)
(0.00893182 -0.0225035 0)
(0.00902336 -0.0219712 0)
(0.00908883 -0.0213717 0)
(0.00914809 -0.0207111 0)
(0.00913685 -0.0200056 0)
(0.00934014 -0.0190989 0)
(0.0100774 -0.0179481 0)
(0.0102001 -0.0172349 0)
(0.00808885 -0.0179446 0)
(0.00393361 -0.0195521 0)
(0.00137439 -0.0205812 0)
(0.00106306 -0.0219293 0)
(-5.96246e-05 -0.0240338 0)
(-0.000115634 -0.0271389 0)
(5.03095e-05 -0.0286833 0)
(0.000357008 -0.0255293 0)
(-0.0010698 -0.0227375 0)
(-0.00127123 -0.0208025 0)
(-0.00271814 -0.019785 0)
(-0.00662831 -0.0183998 0)
(-0.00983616 -0.0171441 0)
(-0.0104375 -0.0174131 0)
(-0.00984327 -0.0185238 0)
(-0.0095583 -0.0195511 0)
(-0.0096549 -0.0203281 0)
(-0.00966803 -0.0210514 0)
(-0.00963588 -0.0217356 0)
(-0.00956587 -0.0223553 0)
(-0.00942733 -0.0229221 0)
(-0.00920399 -0.0234493 0)
(-0.00887647 -0.0239547 0)
(-0.0084259 -0.0244567 0)
(-0.00782858 -0.0249706 0)
(-0.00705119 -0.0255138 0)
(-0.00605919 -0.0261246 0)
(-0.00485038 -0.0268728 0)
(-0.00346057 -0.02786 0)
(-0.00183242 -0.0295595 0)
(-0.000373583 -0.0340457 0)
(0.000352097 -0.034401 0)
(0.00171939 -0.0299401 0)
(0.00324731 -0.0281057 0)
(0.00451078 -0.0269812 0)
(0.00558042 -0.026128 0)
(0.00644118 -0.0254556 0)
(0.00710794 -0.0248938 0)
(0.00761935 -0.0243949 0)
(0.00800974 -0.0239316 0)
(0.00830228 -0.0234812 0)
(0.0085144 -0.0230208 0)
(0.00866342 -0.0225287 0)
(0.00876681 -0.0219887 0)
(0.0088418 -0.0213863 0)
(0.00892 -0.0207189 0)
(0.00893857 -0.0200187 0)
(0.00901751 -0.0191835 0)
(0.00962457 -0.0180563 0)
(0.0101108 -0.0170917 0)
(0.00877021 -0.0173518 0)
(0.00509853 -0.0188503 0)
(0.00203039 -0.0202306 0)
(0.00137268 -0.0217622 0)
(0.000154069 -0.0239022 0)
(2.22236e-05 -0.0271337 0)
(-2.7936e-05 -0.0287124 0)
(0.000111491 -0.0253978 0)
(-0.00131447 -0.0225658 0)
(-0.00175967 -0.020583 0)
(-0.0037295 -0.0192053 0)
(-0.00758309 -0.0176926 0)
(-0.0100171 -0.0168187 0)
(-0.0100864 -0.0174451 0)
(-0.00950169 -0.0186086 0)
(-0.00938891 -0.0195595 0)
(-0.00947739 -0.0203187 0)
(-0.00945735 -0.0210559 0)
(-0.00941385 -0.0217476 0)
(-0.00932943 -0.0223783 0)
(-0.00918101 -0.0229604 0)
(-0.00895212 -0.0235067 0)
(-0.00862367 -0.0240355 0)
(-0.00817689 -0.0245653 0)
(-0.00758821 -0.0251123 0)
(-0.00682545 -0.0256954 0)
(-0.0058555 -0.0263515 0)
(-0.0046742 -0.0271437 0)
(-0.00331374 -0.0281662 0)
(-0.00172645 -0.02988 0)
(-0.000343477 -0.0342655 0)
(0.000325974 -0.0346082 0)
(0.00161936 -0.0302415 0)
(0.00309532 -0.0283885 0)
(0.00431983 -0.027224 0)
(0.00535595 -0.0263267 0)
(0.00619133 -0.0256124 0)
(0.0068422 -0.0250154 0)
(0.00734494 -0.0244886 0)
(0.00773184 -0.0240028 0)
(0.00802504 -0.0235341 0)
(0.00824144 -0.023059 0)
(0.00839744 -0.022556 0)
(0.00851103 -0.0220085 0)
(0.00859607 -0.0214034 0)
(0.00868521 -0.0207319 0)
(0.0087414 -0.0200267 0)
(0.00876192 -0.019242 0)
(0.00920018 -0.0181756 0)
(0.00986894 -0.0170525 0)
(0.00919859 -0.0168932 0)
(0.00614474 -0.0181633 0)
(0.00280137 -0.0197925 0)
(0.00167506 -0.0215408 0)
(0.000354774 -0.0237519 0)
(0.000156841 -0.0271014 0)
(-0.000103916 -0.0287011 0)
(-0.000125871 -0.025257 0)
(-0.00151966 -0.0223625 0)
(-0.00231456 -0.0202767 0)
(-0.00474489 -0.018589 0)
(-0.00830936 -0.017084 0)
(-0.0100017 -0.0166189 0)
(-0.00971171 -0.0175167 0)
(-0.00923182 -0.0186707 0)
(-0.00923313 -0.0195558 0)
(-0.00928564 -0.020315 0)
(-0.00924261 -0.0210644 0)
(-0.00918772 -0.0217623 0)
(-0.00908998 -0.0224038 0)
(-0.0089331 -0.0230004 0)
(-0.00869953 -0.023565 0)
(-0.00837089 -0.0241163 0)
(-0.00792856 -0.0246729 0)
(-0.00734946 -0.0252521 0)
(-0.00660277 -0.0258738 0)
(-0.00565696 -0.0265738 0)
(-0.00450601 -0.0274089 0)
(-0.00317897 -0.0284663 0)
(-0.00163593 -0.03019 0)
(-0.000319773 -0.0344731 0)
(0.000304817 -0.034804 0)
(0.00153187 -0.0305313 0)
(0.00295413 -0.028663 0)
(0.00413723 -0.0274595 0)
(0.00513849 -0.0265198 0)
(0.00594773 -0.0257655 0)
(0.00658232 -0.0251348 0)
(0.0070763 -0.0245813 0)
(0.00745965 -0.024074 0)
(0.00775326 -0.0235876 0)
(0.00797333 -0.0230985 0)
(0.00813535 -0.0225851 0)
(0.00825728 -0.0220304 0)
(0.00835221 -0.0214226 0)
(0.00844767 -0.0207496 0)
(0.00853605 -0.0200355 0)
(0.00854809 -0.0192798 0)
(0.00882871 -0.0182878 0)
(0.00953824 -0.0170881 0)
(0.00940549 -0.0165662 0)
(0.00702547 -0.0175265 0)
(0.00364651 -0.0192846 0)
(0.00202425 -0.0212534 0)
(0.000567868 -0.0235761 0)
(0.00029249 -0.0270406 0)
(-0.000179251 -0.0286545 0)
(-0.000364091 -0.025098 0)
(-0.00174414 -0.0221179 0)
(-0.0029483 -0.0198867 0)
(-0.00569716 -0.017968 0)
(-0.00881394 -0.0165886 0)
(-0.00984626 -0.0165218 0)
(-0.00935438 -0.0176034 0)
(-0.00901711 -0.01871 0)
(-0.00907348 -0.0195481 0)
(-0.00908276 -0.0203175 0)
(-0.00902498 -0.0210761 0)
(-0.00895826 -0.0217796 0)
(-0.00884899 -0.0224315 0)
(-0.00868488 -0.0230418 0)
(-0.00844751 -0.023624 0)
(-0.00811928 -0.0241968 0)
(-0.00768189 -0.0247793 0)
(-0.00711298 -0.0253895 0)
(-0.00638336 -0.0260486 0)
(-0.00546314 -0.0267909 0)
(-0.00434462 -0.0276679 0)
(-0.0030542 -0.0287594 0)
(-0.00155768 -0.03049 0)
(-0.000301024 -0.0346704 0)
(0.000287509 -0.03499 0)
(0.00145448 -0.0308096 0)
(0.0028222 -0.0289287 0)
(0.00396228 -0.0276875 0)
(0.00492794 -0.0267071 0)
(0.0057108 -0.0259147 0)
(0.00632908 -0.0252521 0)
(0.0068144 -0.0246731 0)
(0.00719427 -0.0241451 0)
(0.00748815 -0.0236417 0)
(0.00771134 -0.023139 0)
(0.00787853 -0.0226156 0)
(0.00800706 -0.0220542 0)
(0.00811086 -0.0214434 0)
(0.00821068 -0.0207706 0)
(0.00832113 -0.0200483 0)
(0.00835409 -0.019304 0)
(0.0085149 -0.0183834 0)
(0.00916934 -0.0171714 0)
(0.00943086 -0.0163592 0)
(0.00771878 -0.0169667 0)
(0.00450893 -0.0187329 0)
(0.00245263 -0.0208975 0)
(0.000818108 -0.0233697 0)
(0.000433406 -0.0269486 0)
(-0.000254344 -0.0285694 0)
(-0.000615029 -0.0249178 0)
(-0.00202806 -0.0218248 0)
(-0.00364399 -0.0194274 0)
(-0.00653724 -0.0173727 0)
(-0.00911797 -0.0162092 0)
(-0.00960169 -0.0165023 0)
(-0.00903549 -0.0176887 0)
(-0.00883692 -0.0187308 0)
(-0.00890211 -0.0195421 0)
(-0.00887267 -0.0203256 0)
(-0.00880517 -0.0210903 0)
(-0.00872673 -0.0217994 0)
(-0.00860792 -0.0224611 0)
(-0.00843767 -0.0230844 0)
(-0.00819728 -0.0236834 0)
(-0.00786997 -0.024277 0)
(-0.00743785 -0.0248844 0)
(-0.00687952 -0.0255246 0)
(-0.00616755 -0.0262196 0)
(-0.00527383 -0.0270025 0)
(-0.0041892 -0.02792 0)
(-0.00293778 -0.0290449 0)
(-0.00148919 -0.0307801 0)
(-0.000286103 -0.0348592 0)
(0.000273182 -0.0351674 0)
(0.00138527 -0.0310771 0)
(0.00269832 -0.0291853 0)
(0.00379446 -0.0279078 0)
(0.00472433 -0.0268885 0)
(0.00548096 -0.0260602 0)
(0.00608319 -0.0253673 0)
(0.0065601 -0.0247639 0)
(0.00693665 -0.0242161 0)
(0.00723071 -0.0236964 0)
(0.00745656 -0.0231805 0)
(0.00762813 -0.0226474 0)
(0.0077618 -0.0220795 0)
(0.00787283 -0.0214656 0)
(0.0079764 -0.0207939 0)
(0.00809912 -0.0200661 0)
(0.0081648 -0.0193213 0)
(0.00825129 -0.0184595 0)
(0.00879849 -0.0172798 0)
(0.00931699 -0.0162545 0)
(0.00822171 -0.0165 0)
(0.00533318 -0.018167 0)
(0.00296379 -0.020479 0)
(0.00112214 -0.0231278 0)
(0.000583256 -0.0268196 0)
(-0.000329387 -0.0284423 0)
(-0.000887065 -0.0247094 0)
(-0.00238854 -0.0214802 0)
(-0.00436623 -0.0189203 0)
(-0.00723537 -0.0168279 0)
(-0.00925079 -0.0159394 0)
(-0.00930961 -0.0165366 0)
(-0.00876085 -0.017763 0)
(-0.00867287 -0.0187392 0)
(-0.00871753 -0.0195406 0)
(-0.00865862 -0.0203381 0)
(-0.00858386 -0.0211067 0)
(-0.00849456 -0.0218214 0)
(-0.00836804 -0.0224924 0)
(-0.00819263 -0.023128 0)
(-0.00794998 -0.0237433 0)
(-0.00762398 -0.0243568 0)
(-0.00719737 -0.0249882 0)
(-0.0066498 -0.0256572 0)
(-0.00595576 -0.0263866 0)
(-0.00508899 -0.0272084 0)
(-0.00403914 -0.0281651 0)
(-0.00282838 -0.0293224 0)
(-0.0014285 -0.0310606 0)
(-0.000274132 -0.0350406 0)
(0.000261158 -0.0353372 0)
(0.0013227 -0.0313339 0)
(0.00258151 -0.0294327 0)
(0.0036334 -0.0281203 0)
(0.00452773 -0.027064 0)
(0.00525862 -0.0262018 0)
(0.00584523 -0.0254803 0)
(0.00631408 -0.0248538 0)
(0.0066875 -0.024287 0)
(0.00698167 -0.0237515 0)
(0.00720981 -0.0232229 0)
(0.00738504 -0.0226802 0)
(0.0075227 -0.0221061 0)
(0.00763908 -0.0214889 0)
(0.00774614 -0.0208184 0)
(0.00787371 -0.0200884 0)
(0.00797194 -0.0193369 0)
(0.00802492 -0.0185174 0)
(0.00844825 -0.017396 0)
(0.00910414 -0.0162318 0)
(0.00854468 -0.0161329 0)
(0.00607468 -0.0176145 0)
(0.00353676 -0.0200106 0)
(0.00148381 -0.0228416 0)
(0.000744461 -0.0266469 0)
(-0.000404403 -0.028269 0)
(-0.0011836 -0.0244638 0)
(-0.00282087 -0.0210864 0)
(-0.00507384 -0.0183896 0)
(-0.00777856 -0.0163509 0)
(-0.00924504 -0.0157672 0)
(-0.0090013 -0.016604 0)
(-0.00852631 -0.0178221 0)
(-0.00851157 -0.0187411 0)
(-0.00852167 -0.019545 0)
(-0.0084429 -0.020354 0)
(-0.00836181 -0.021125 0)
(-0.00826312 -0.0218453 0)
(-0.00813047 -0.0225249 0)
(-0.0079508 -0.0231726 0)
(-0.00770653 -0.0238035 0)
(-0.0073822 -0.0244362 0)
(-0.00696123 -0.0250906 0)
(-0.00642449 -0.0257873 0)
(-0.00574843 -0.0265496 0)
(-0.0049087 -0.0274084 0)
(-0.00389404 -0.0284028 0)
(-0.00272497 -0.0295917 0)
(-0.00137402 -0.0313319 0)
(-0.000264422 -0.0352156 0)
(0.00025091 -0.0355003 0)
(0.00126559 -0.0315805 0)
(0.002471 -0.0296708 0)
(0.00347885 -0.0283249 0)
(0.00433821 -0.0272337 0)
(0.00504408 -0.0263397 0)
(0.00561565 -0.0255914 0)
(0.00607683 -0.0249429 0)
(0.00644732 -0.0243579 0)
(0.00674157 -0.0238071 0)
(0.00697167 -0.023266 0)
(0.00714992 -0.0227138 0)
(0.00729064 -0.0221336 0)